# vtk DataFile Version 4.2
vtk output
ASCII
DATASET POLYDATA
POINTS 3 float
92.9988 -109.465 5.4732 13.5278 -82.5426 40.9587 14.6307 -85.442 43.7041 

VERTICES 3 6
1 0 
1 1 
1 2 

POINT_DATA 3
FIELD FieldData 1
seed_label 1 3 double
0 1 2 
