# vtk DataFile Version 5.1
vtk output
ASCII
DATASET POLYDATA
POINTS 9274 float
0.133544 -0.583154 0 0.148014 -0.571914 0 0.160752 -0.576357 0 
0.169583 -0.563577 0 0.158882 -0.557566 0 0.142375 -0.564501 0 
0.17877 -0.551053 0 0.193977 -0.542409 0 0.184924 -0.53719 0 
0.148556 -0.587455 0 0.171526 -0.580252 0 0.167559 -0.593513 0 
0.184682 -0.584895 0 0.185761 -0.567157 0 0.210895 -0.55945 0 
0.195111 -0.553469 0 0.215609 -0.54233 0 0.217078 -0.548716 0 
0.192154 -0.59235 0 0.200924 -0.572425 0 0.215176 -0.574092 0 
0.223496 -0.561154 0 0.149995 -0.614142 0 0.164882 -0.621664 0 
0.180781 -0.60592 0 0.157427 -0.60548 0 0.205823 -0.595939 0 
0.228232 -0.551548 0 0.22627 -0.583488 0 0.237205 -0.589258 0 
0.247357 -0.569316 0 0.220821 -0.57942 0 0.0438402 -0.502921 0 
0.0687399 -0.501225 0 0.0626718 -0.494187 0 0.090257 -0.495889 0 
0.108854 -0.489217 0 0.0806082 -0.487088 0 0.0993286 -0.480472 0 
0.11295 -0.499597 0 0.122549 -0.47914 0 0.0290149 -0.51378 0 
0.0523445 -0.520976 0 0.053175 -0.509594 0 0.0731025 -0.513944 0 
0.0839242 -0.505725 0 0.0833661 -0.520463 0 0.094015 -0.510217 0 
0.131992 -0.486476 0 0.142573 -0.47629 0 0.101563 -0.524231 0 
0.110025 -0.531876 0 0.0877171 -0.529765 0 0.113153 -0.514683 0 
0.139352 -0.492503 0 0.156212 -0.483578 0 0.161053 -0.499908 0 
0.14497 -0.501786 0 0.15829 -0.491471 0 0.112761 -0.540273 0 
0.094539 -0.541088 0 0.133923 -0.524184 0 0.136934 -0.534719 0 
0.185934 -0.522237 0 0.175363 -0.490876 0 0.142566 -0.513509 0 
0.181146 -0.49825 0 0.0697234 -0.544961 0 0.075699 -0.537181 0 
0.0947855 -0.550523 0 0.164869 -0.50974 0 0.117498 -0.549269 0 
0.185172 -0.510455 0 0.0917297 -0.571084 0 0.10122 -0.577802 0 
0.119478 -0.566603 0 0.096016 -0.562285 0 0.121258 -0.558809 0 
0.124476 -0.575614 0 0.142046 -0.556189 0 0.193575 -0.501085 0 
0.0788905 -0.582353 0 0.0823958 -0.592625 0 0.103847 -0.587682 0 
0.143166 -0.544498 0 0.0785712 -0.602431 0 0.0972562 -0.59989 0 
0.117178 -0.594836 0 0.0821469 -0.609372 0 0.107099 -0.607029 0 
0.160079 -0.548276 0 0.162181 -0.541294 0 0.0953634 -0.622899 0 
0.078232 -0.616801 0 0.0980491 -0.615678 0 0.120075 -0.611501 0 
0.126183 -0.600442 0 0.211655 -0.521104 0 0.210773 -0.513541 0 
0.119771 -0.620272 0 0.103888 -0.629489 0 0.0794134 -0.632552 0 
0.144313 -0.594535 0 0.146152 -0.601045 0 0.10623 -0.636859 0 
0.12657 -0.629456 0 0.13908 -0.623973 0 0.127439 -0.638875 0 
0.207354 -0.531108 0 0.22396 -0.533832 0 0.230686 -0.520302 0 
0.244898 -0.519931 0 0.14781 -0.632983 0 0.117053 -0.650734 0 
0.102438 -0.645522 0 0.142189 -0.643089 0 0.246579 -0.535227 0 
0.242687 -0.545109 0 0.133404 -0.656197 0 0.154519 -0.656221 0 
0.253069 -0.551957 0 0.24785 -0.527684 0 0.164203 -0.636961 0 
0.202178 -0.606103 0 0.236648 -0.562193 0 0.269393 -0.519946 0 
0.25753 -0.558093 0 0.258237 -0.538824 0 0.275655 -0.523986 0 
0.156976 -0.666336 0 0.18141 -0.651926 0 0.230767 -0.599937 0 
0.234271 -0.608496 0 0.203732 -0.614486 0 0.266803 -0.543971 0 
0.272898 -0.53462 0 0.189883 -0.627733 0 0.21872 -0.629775 0 
0.182473 -0.640652 0 0.249177 -0.579025 0 0.219458 -0.619779 0 
0.277855 -0.546879 0 0.140377 -0.678687 0 0.168717 -0.671207 0 
0.207139 -0.665102 0 0.187081 -0.660996 0 0.202637 -0.642026 0 
0.265711 -0.570227 0 0.268629 -0.5603 0 0.231163 -0.646915 0 
0.207739 -0.652326 0 0.262161 -0.582147 0 0.253463 -0.593671 0 
0.273418 -0.586416 0 0.223297 -0.639295 0 0.245711 -0.615837 0 
0.239408 -0.626908 0 0.255041 -0.603188 0 0.0148842 -0.476217 0 
0.0430304 -0.47917 0 0.0347272 -0.470361 0 0.057053 -0.470625 0 
0.0710578 -0.458016 0 0.0771982 -0.466845 0 0.0223267 -0.501089 0 
0.00563535 -0.494333 0 0.0311138 -0.494166 0 0.0749316 -0.478358 0 
0.0476937 -0.486639 0 0.0958529 -0.459027 0 0.102388 -0.466101 0 
0.0116755 -0.506483 0 0.000285455 -0.512481 0 0.10577 -0.471906 0 
0.0111572 -0.519007 0 0.139192 -0.460214 0 0.12776 -0.470503 0 
0.0157418 -0.534564 0 0.0373559 -0.5315 0 0.0247588 -0.524472 0 
0.151413 -0.449248 0 0.127636 -0.455958 0 0.0399869 -0.541872 0 
0.151503 -0.464788 0 0.162356 -0.452163 0 0.0638657 -0.530231 0 
0.0374179 -0.551845 0 0.168853 -0.464424 0 0.173218 -0.45455 0 
0.163721 -0.474744 0 0.183855 -0.466403 0 0.0657133 -0.553853 0 
0.048876 -0.56153 0 0.0396248 -0.568966 0 0.0261348 -0.560711 0 
0.179765 -0.478674 0 0.0879864 -0.557422 0 0.0699679 -0.562089 0 
0.203658 -0.463105 0 0.0641318 -0.571736 0 0.19743 -0.483541 0 
0.201504 -0.473039 0 0.0383851 -0.576561 0 0.056819 -0.582218 0 
0.0559315 -0.593378 0 0.0417701 -0.589353 0 0.210549 -0.48679 0 
0.219188 -0.472903 0 0.0591277 -0.600684 0 0.212616 -0.496027 0 
0.0568933 -0.610395 0 0.209864 -0.505679 0 0.0570508 -0.618683 0 
0.0692915 -0.62509 0 0.0498264 -0.638464 0 0.0518678 -0.630779 0 
0.231902 -0.49043 0 0.0737283 -0.640363 0 0.234894 -0.499885 0 
0.0792122 -0.649206 0 0.0559128 -0.645801 0 0.0512033 -0.653244 0 
0.237391 -0.508495 0 0.0682448 -0.657674 0 0.0882714 -0.656613 0 
0.0841031 -0.664395 0 0.0636874 -0.665363 0 0.260372 -0.492991 0 
0.0786663 -0.673293 0 0.111281 -0.65996 0 0.100432 -0.667148 0 
0.260243 -0.504156 0 0.0816945 -0.681459 0 0.10433 -0.673798 0 
0.265 -0.512512 0 0.0986266 -0.686987 0 0.077382 -0.691358 0 
0.131399 -0.668853 0 0.114223 -0.679748 0 0.280997 -0.502569 0 
0.289605 -0.508969 0 0.0946196 -0.697732 0 0.122579 -0.687108 0 
0.120908 -0.693817 0 0.113399 -0.702511 0 0.135172 -0.696192 0 
0.150746 -0.686266 0 0.286681 -0.526125 0 0.28732 -0.53412 0 
0.163524 -0.691334 0 0.148471 -0.70048 0 0.300158 -0.533062 0 
0.291095 -0.554403 0 0.287501 -0.562937 0 0.292399 -0.545957 0 
0.285965 -0.570399 0 0.183147 -0.691578 0 0.173601 -0.678526 0 
0.289868 -0.577347 0 0.239846 -0.653702 0 0.250401 -0.629769 0 
0.268822 -0.604116 0 0.282496 -0.590297 0 0.269825 -0.613407 0 
0.193696 -0.679356 0 0.305963 -0.568178 0 0.221559 -0.668352 0 
0.253529 -0.640162 0 0.286648 -0.610084 0 0.290823 -0.595599 0 
0.271817 -0.625312 0 0.0155729 -0.417049 0 0.0168025 -0.424402 0 
0.0417761 -0.416663 0 0.0474345 -0.427285 0 0.0674636 -0.419374 0 
0.0718547 -0.410352 0 0.0240531 -0.432237 0 0.033969 -0.437734 0 
-0.0122345 -0.453355 0 0.0103847 -0.45829 0 0.00920186 -0.449562 0 
0.0722723 -0.427882 0 0.0125547 -0.467171 0 0.0415141 -0.462485 0 
0.0709092 -0.437471 0 0.0477869 -0.443914 0 0.0143359 -0.442037 0 
0.0298978 -0.452313 0 0.0577517 -0.450801 0 0.0968824 -0.428509 0 
0.105725 -0.435094 0 -0.00833558 -0.474005 0 -0.000589828 -0.481984 0 
0.111764 -0.452504 0 0.0876361 -0.446044 0 0.107651 -0.444045 0 
-0.0130203 -0.500925 0 -0.0237983 -0.493885 0 0.0227109 -0.486703 0 
-0.0109494 -0.487998 0 0.123518 -0.438567 0 -0.0174922 -0.517585 0 
-0.021041 -0.507539 0 -0.0139377 -0.534113 0 -0.00188812 -0.526762 0 
-0.0342472 -0.526492 0 0.131161 -0.442381 0 0.142341 -0.444964 0 
-0.00490655 -0.541886 0 0.0141204 -0.545148 0 0.00585825 -0.56022 0 
-0.0143384 -0.552694 0 0.163915 -0.438918 0 0.178013 -0.442274 0 
0.0088879 -0.571279 0 0.196272 -0.442136 0 0.190544 -0.453475 0 
0.207343 -0.453245 0 0.210452 -0.442613 0 0.0215475 -0.581382 0 
0.0147265 -0.59035 0 0.0268014 -0.597615 0 0.224288 -0.46006 0 
0.228529 -0.448667 0 0.0375716 -0.605381 0 0.240447 -0.459558 0 
0.0272575 -0.613353 0 0.0384211 -0.621593 0 0.0264017 -0.635346 0 
0.0257636 -0.628039 0 0.237272 -0.471261 0 0.0269004 -0.643058 0 
0.234977 -0.48046 0 0.0224442 -0.657365 0 0.0284781 -0.649936 0 
0.0453514 -0.660632 0 0.256485 -0.475966 0 0.250206 -0.488354 0 
0.0309838 -0.676562 0 0.0555408 -0.679702 0 0.0527916 -0.672977 0 
0.0389159 -0.668103 0 0.271528 -0.477495 0 0.0493071 -0.696127 0 
0.0660556 -0.69951 0 0.0557411 -0.687643 0 0.279308 -0.490551 0 
0.0489107 -0.707424 0 0.0729719 -0.706818 0 0.296397 -0.489752 0 
0.0919181 -0.709846 0 0.302574 -0.496769 0 0.0740939 -0.717341 0 
0.108967 -0.712439 0 0.135788 -0.709019 0 0.297878 -0.514267 0 
0.120961 -0.718313 0 0.0961768 -0.721383 0 0.312487 -0.506044 0 
0.318388 -0.495128 0 0.30563 -0.520661 0 0.142762 -0.716374 0 
0.164441 -0.7083 0 0.312958 -0.534824 0 0.319739 -0.522268 0 
0.313517 -0.544829 0 0.189857 -0.699283 0 0.208956 -0.688523 0 
0.214547 -0.678846 0 0.310175 -0.558035 0 0.327433 -0.545382 0 
0.304651 -0.578429 0 0.235828 -0.679578 0 0.242669 -0.668468 0 
0.255919 -0.655881 0 0.274835 -0.638876 0 0.277982 -0.646362 0 
0.279465 -0.630304 0 0.291838 -0.618458 0 0.30794 -0.595355 0 
0.313284 -0.582618 0 0.323063 -0.563389 0 0.272692 -0.658346 0 
0.330378 -0.568532 0 0.309531 -0.604366 0 0.32292 -0.605581 0 
0.0100395 -0.335812 0 -0.0128524 -0.336966 0 8.33182e-05 -0.344012 0 
0.0206796 -0.343 0 -0.0104927 -0.354727 0 0.0171888 -0.359896 0 
0.00526665 -0.352121 0 0.0271596 -0.350299 0 0.0458412 -0.343237 0 
0.0297907 -0.367134 0 0.0445476 -0.354948 0 0.000911164 -0.365124 0 
0.00962585 -0.374024 0 0.0394614 -0.372943 0 0.0606578 -0.346314 0 
-0.0174739 -0.384476 0 0.00503411 -0.388969 0 0.0159942 -0.381541 0 
-0.0152353 -0.376696 0 -0.0169038 -0.394398 0 0.019174 -0.394441 0 
0.0388433 -0.384231 0 0.0509614 -0.393628 0 0.0630602 -0.358911 0 
0.0726947 -0.349203 0 0.0161648 -0.404117 0 -0.0174385 -0.403401 0 
0.0633465 -0.367122 0 0.086356 -0.369721 0 0.0690108 -0.380337 0 
0.0585415 -0.374457 0 0.0884402 -0.359103 0 -0.00561643 -0.41153 0 
-0.0135699 -0.421737 0 0.0468154 -0.407023 0 0.0870343 -0.384128 0 
0.105073 -0.371147 0 0.00424775 -0.431724 0 -0.0181881 -0.431498 0 
0.0857771 -0.396967 0 0.0989608 -0.410335 0 -0.0068058 -0.442373 0 
-0.0304538 -0.438166 0 0.117053 -0.374897 0 0.111642 -0.383347 0 
0.115296 -0.388022 0 -0.0335008 -0.457552 0 -0.0319502 -0.44798 0 
0.13933 -0.374218 0 0.123262 -0.393002 0 0.119644 -0.400297 0 
-0.0336095 -0.474207 0 -0.0542176 -0.466154 0 -0.0286131 -0.466249 0 
-0.00756791 -0.464128 0 0.0919176 -0.420059 0 -0.0555167 -0.477304 0 
-0.0318501 -0.482033 0 0.144279 -0.39473 0 0.125101 -0.414163 0 
0.123424 -0.423272 0 0.124666 -0.406455 0 -0.0589361 -0.491292 0 
-0.0407711 -0.488122 0 -0.0460277 -0.500174 0 0.137028 -0.430904 0 
0.149332 -0.416879 0 0.155766 -0.407148 0 -0.0443888 -0.509443 0 
[...]
POINT_DATA 9274
FIELD FieldData 3
thickness 1 9274 double
6.6503957822 6.8482943774 6.4165939486 6.6470389431 7.0094003109 7.0250953306 7.0954716825 6.8481620636 7.0042949736 
6.534856097 6.1294289267 6.6301497072 6.4796744603 6.3025538401 5.8972307176 6.0689726071 5.5242349 5.5142638412 
6.743277562 5.5529934897 6.4981086959 6.5017384025 7.7436327378 7.9527860846 7.0144056886 7.3147875531 6.7031418264 
5.7051835174 6.6662224512 7.0645597667 6.8545135893 6.5424466124 7.4406844776 6.8534543049 7.3150346196 6.5336686542 
6.5174112264 7.1306093069 6.8724278709 6.5011212401 6.5370217835 7.3624717893 7.0782244552 7.1142401587 6.8691842956 
6.6094367324 7.0177256183 6.5141380225 6.521532964 6.5498918119 7.0168747959 7.1865391867 7.4565615927 7.0312094401 
6.5361374049 6.6665545224 7.0810703993 7.3156647618 6.9668470941 7.1490091955 7.5607717907 7.0028017709 6.8688308509 
6.9950619345 6.9900475153 7.0686914428 6.8741301949 7.7155556626 7.5652632415 7.4448948115 7.017909056 7.0337224807 
6.8769914261 7.1816853925 7.3558862946 7.0429932184 7.2964471464 7.0339210196 7.0289285642 7.0047535571 6.6912437643 
7.5907156201 7.5470544159 7.247295382 6.6851972726 7.4091218515 7.1741428699 6.9539166824 7.3736779487 7.0884111617 
6.8126087902 6.5089356097 7.5975449494 7.4490460996 7.5586239329 7.3287616302 6.800786943 6.9743173176 6.996159757 
7.568329141 7.6520278153 7.7751898491 6.5448873153 6.755076426 7.6159190533 8.0188973138 7.946639635 7.9443143545 
6.8987323731 6.0093621884 6.7149501484 6.1266936778 8.0239280579 7.9219735563 7.6058240108 8.1974630794 5.7166066548 
6.1601109727 8.3685295749 8.3350488383 6.9339349406 6.0384445271 8.2515601502 6.7874494602 6.9187023631 6.2229811028 
7.1486438627 6.4360196995 6.5551741071 8.1701131708 7.6598224877 6.8440882642 7.0111321279 6.9039916157 6.9003440594 
6.6785227807 7.7838951758 7.4828813498 8.595194444 7.1205395865 7.3796788594 7.3007085408 7.4326177082 7.5065630011 
7.5673516348 7.4490166543 7.0744543513 7.6619636377 7.3793454014 7.3300440383 7.028693438 7.4637510023 7.0821641892 
7.3113445613 7.0407807362 7.285719254 7.5189360658 7.0643951814 8.532901768 8.5549909309 8.5706203653 8.2355927868 
7.5776548685 7.7772762695 7.8158282761 8.44129697 8.0051855589 8.0003533001 8.1813722513 7.5647289523 7.6738132388 
7.8355374747 7.8175415247 7.267651886 7.5505491755 7.086729779 6.6582799378 7.8466270493 7.5830902402 7.5638092252 
7.7747261921 7.5837078211 7.8379953745 6.8235398865 7.5413417031 7.52204553 8.0649745615 6.9196209185 7.291109456 
6.587976197 7.092190461 7.9662939078 8.0788121546 8.101401695 8.1666269027 7.0419680358 7.4650863218 7.920301886 
7.7356236805 7.7225732846 7.7348880784 7.9785281172 8.1650128314 7.6938312576 7.7047315849 7.8760474851 7.3404402872 
8.072950328 7.6524078409 7.1446894789 7.4140113045 7.2392136369 7.5268732828 7.6314585326 7.9602238693 7.8893150257 
7.4212517856 7.7101429692 7.6428011169 7.8244914329 7.8979155747 7.9733345276 7.581912522 8.0370132769 8.074276413 
8.0949615863 8.0192838342 8.0565203455 8.1981801351 8.0396560542 8.0099947189 6.9160589706 8.1764012439 7.8933852942 
6.1093286199 7.8066716532 8.2391553171 7.7391098832 7.6431233678 6.4025469063 6.3788118691 7.9026257183 7.363353284 
7.4126573874 7.8404719908 7.2676505905 7.0248917001 6.9055571229 7.2147296033 7.0845294029 7.5713204724 7.8173631059 
7.9314058218 8.0917590764 7.7377975816 7.9556128082 7.5512736066 7.0981687266 7.6991252135 7.4717454355 7.4354766793 
7.3296852138 7.2206531078 7.5949747457 7.5658856351 7.8807879192 7.794349521 7.44638573 7.4069348204 7.1658539285 
7.6062933831 6.1261412161 6.413910701 6.0314289865 6.551957291 6.8835474712 6.6599665244 6.7370705042 7.0249894521 
7.2827167044 7.4690503095 7.1354555637 7.1076799866 8.065111504 8.0301634951 7.8864808692 7.5749227956 7.0486746251 
7.5504568799 7.7842002708 8.5752231867 8.8550180059 8.3311191065 8.8426142075 7.5800057415 7.6657037718 7.8203131806 
8.2745278414 9.035864752 8.4594668686 9.0121668784 8.3738612561 7.8791052681 8.1006850356 7.854266412 7.711966679 
8.0078771593 8.2379508008 7.8474480684 7.8082436969 7.8714835555 8.1620478363 7.9990644137 8.4647401567 8.0010646722 
8.4171673692 7.6350789755 7.4624311264 7.9354670915 7.8026725812 8.3630617795 8.3410441931 8.203207306 8.5493387509 
8.8675609278 7.9300093605 7.7756513136 7.9744173055 7.9210308852 8.2049700475 8.2247378679 7.6554780947 8.1111728347 
7.4589666757 8.0997658128 8.1713060616 7.9274582943 7.7148327466 7.8489851943 8.258892939 8.5266362958 8.0732963655 
7.9624462548 8.547775908 8.8823987122 8.573724284 8.6811435685 6.8257565346 8.7477845013 8.3039502569 6.3554412147 
8.074351109 6.4366557595 7.8328143132 8.1521783641 8.037835241 6.8765057419 8.2407023549 8.1590983099 6.9226476896 
6.6585718491 7.4331749935 8.3419244043 8.1284019912 8.3451477855 8.0506099072 8.2652844481 7.8451194588 7.9697236565 
8.0159807046 8.0864101154 8.0644828665 7.4239822171 8.3251395144 7.9227234497 7.7040381788 7.5866005866 7.7730061536 
7.6290930392 7.6231862579 7.1632979553 7.2567137512 7.6194359038 8.3383202062 7.3463550397 7.3020823992 7.6275231339 
3.005313587 3.0112801379 3.0048388635 2.9975661578 3.464037029 3.13521874 3.0318138894 2.7390769805 2.7256074829 
3.0081372178 2.713340446 3.3926601843 3.5846135034 3.0172129878 2.5284904984 4.675923191 5.7370428399 4.0225915094 
4.3512171608 4.62569156 5.7438432042 3.5258763956 4.98256247 2.8872300155 2.6707923355 6.0147514474 5.3268094347 
3.0099465699 3.4593694397 3.7749491764 3.4573615573 3.2056598216 5.806460595 6.5804512408 5.9480961376 4.5416894493 
3.9675633374 6.7115564674 6.9328857551 6.2115971573 8.2377579958 7.0113034321 6.8431490952 4.2242760318 5.2209103246 
6.1180734873 7.5864193214 7.1270285521 5.6494372045 7.7555196892 8.7758659881 8.6398137516 8.6719333561 8.0563133956 
7.8978874984 7.9560238752 9.3538800954 9.1844651504 9.6392724518 10.53831624 11.053513583 9.8463579899 9.5563724281 
9.4786718242 8.9369922244 10.362317182 12.11689953 11.026613065 8.5170261598 8.2335755529 8.107208892 8.0876725021 
7.8479851593 8.9140416582 11.010022584 11.090348071 9.5695603417 8.0595435607 8.1773822095 8.3822312816 8.6906249802 
8.8224264072 7.929603897 8.2872058108 8.8700563116 9.1096504969 8.7934247379 8.9272715592 8.6438038628 8.5142541512 
8.7684960401 8.8149336654 8.5512366235 9.0195348185 8.6582188011 8.5416122899 9.2164288853 8.9961382102 8.6332663376 
8.3969513117 8.2784085819 7.4463630361 8.3299649812 8.2497644289 7.3628631183 8.1478355252 8.0903682099 8.3388959553 
8.3014558 7.5770671685 8.739610117 8.8506463278 9.2813806646 9.3147414757 9.3828523032 7.9463694781 9.2256245038 
8.0769799929 7.1868863299 8.4731450847 6.430133879 6.0852312635 7.8771246182 6.3763684213 8.7079852825 8.2064602723 
6.2870457716 6.6962338619 7.1175350357 7.7362271384 8.9213971221 7.7291526898 8.2721475594 9.2094688819 8.5970407577 
8.8112970741 8.5220998801 8.5166919121 8.3754724463 7.6760982407 8.8117364191 8.7028761876 8.7006279253 7.8079511703 
7.3749993681 7.5355712071 7.7362611727 7.384538901 7.533171537 8.1006153508 7.6385828083 7.8631266529 7.6400076503 
7.7588131145 3.8063556888 3.4110197852 3.5044164721 3.4201350032 3.484786191 3.4804453964 3.5162164236 3.0103780391 
3.1801774968 3.4894034867 3.4179864156 3.1481662255 3.2026903221 3.1342312776 3.0297785334 3.3956625517 3.0344313831 
3.5672161604 3.5245398163 3.7109824258 3.6554031127 3.4610823483 3.8727816005 3.632020426 3.1886169347 3.3723576484 
3.7263728474 3.9685401227 3.2166578472 3.0613459681 4.5276681034 4.3896855217 5.2459601962 3.2163878797 2.9129592645 
5.9517135422 3.8740740521 3.6842902282 5.4038558 6.1656173265 6.7288522336 3.8849588201 7.0056236298 7.1308090439 
7.0889493173 5.0805682375 4.7104218894 4.972826041 7.1822097532 4.6126383462 3.9029859738 7.7634560295 8.3877246789 
4.7736986611 7.135633811 9.1527862569 5.5288574204 5.1837217994 9.7081422805 9.1635334151 6.5685071245 9.2767010601 
8.8305566394 10.738794972 10.019054003 9.8095930436 8.5439154325 9.3469761641 8.3103300954 8.430399123 10.307710808 
8.3227421057 8.2652580208 8.3196793359 8.2348912166 8.7169153217 8.2102098799 8.5055685138 8.4641122036 8.6406878615 
8.4818058782 8.8339746617 9.1871782437 9.3640738117 8.7810502746 9.1885538612 9.0716127038 8.9911982157 8.7163365941 
8.4014371951 8.3078594556 8.4044579424 8.4597432343 8.2939137461 7.9367396191 7.4801776886 8.7364385496 8.4396903841 
9.1441977456 7.581524875 9.6244147734 7.9233874497 9.6127094752 9.1219390439 9.1886987038 8.4936975799 8.7702902346 
8.131014144 8.0509776983 8.203412252 7.2080134191 8.0441116882 6.6141007152 8.5364135868 9.1122780772 7.2096245641 
9.4801624587 7.7194205471 9.6485845154 8.0796531177 8.3813965178 8.6181176518 9.6047978885 9.343410698 8.4888028031 
9.2420287072 9.5766644967 8.0022830398 7.6501911411 9.2094049054 9.2819436651 8.8863023472 8.6386911996 7.6761198238 
7.7980293851 8.0652763496 3.5190185922 3.6856806061 3.4935810803 3.4479727878 3.3382198475 3.521216861 4.8742878843 
3.7867597246 4.4458379237 3.5635277026 4.3520565637 3.6047986891 3.3227312673 3.392748 3.5159075889 3.4565075894 
4.0042909543 4.0847648805 3.3783414698 3.5736081616 3.7329681619 3.4853317671 4.3515793388 4.2029063518 3.7000069049 
3.6667052281 4.0826884023 4.0120989459 3.9878990877 3.9560630357 3.3394568373 4.611673388 3.971968816 5.2290746406 
3.7267214107 5.8521154199 6.9990274363 3.4756558914 2.6153327517 2.5723596509 3.2165517576 4.014571836 2.6539985557 
8.2063606475 7.4983129626 7.86717184 7.2101001708 2.9199207192 8.6305986808 9.3294774955 3.1856427484 3.4746847771 
9.7244775891 9.8074958185 5.1265860906 3.9857359769 3.7223567787 5.0237132392 9.6379037069 8.8855054711 5.922094094 
6.4656560539 8.673794185 8.596929546 7.5390948166 8.619942919 7.356180429 8.5872635084 8.077611321 8.4697289319 
8.5062133468 8.3353581424 7.8250592281 8.2020813107 8.0435387949 8.5388029527 8.5736486748 7.8459164344 8.8863597917 
9.1121516903 8.2197335361 9.3066528293 8.4287672605 8.5471812573 9.322478907 8.5874111134 8.7352387696 8.4969319062 
8.8170442998 8.1446768762 8.2061462539 8.8320822199 8.98737045 8.3129068286 8.328797477 8.6158424877 8.325364382 
8.2868726711 7.9075264325 7.9221779461 9.303193294 9.6135003165 8.7158363905 8.7313616407 8.6756395453 8.2710328423 
8.4275889296 7.2337838244 7.0988712647 7.059937996 6.8646566875 6.8878242779 6.961899866 9.3464774127 9.6244594723 
7.5391320231 9.6621839378 9.5511037573 7.9080126919 7.9561207148 8.276753374 8.0796415547 9.6330585114 9.5278610835 
7.6920813309 7.6509249813 7.69074264 8.75194814 8.1958750445 7.8501777992 7.9631672603 7.9817441385 7.7655078723 
7.9543273529 8.3308572913 8.1769247968 8.3302807374 8.1063902417 3.8056453373 4.8760881938 3.8762181045 3.7824506393 
3.2488898375 2.9731921303 2.9075177173 3.3403435986 3.149407774 3.1630088369 2.9887830994 3.1646025549 3.6056774311 
4.2386056716 2.5884242763 4.5586345583 4.6817307776 3.4477450426 4.5997064471 5.0344632535 4.625021788 4.7056611301 
3.983142782 4.9447608308 3.5164581825 5.215062832 3.7357318864 3.9402434917 5.1872064902 4.5990924608 4.5347090472 
5.1517882067 5.8905006496 4.6826796003 6.3504148949 3.7599592717 7.0121627455 7.5168340913 2.1579824193 1.7959374313 
8.6639778333 9.262062906 2.7771538251 2.7346408086 9.2977808794 3.632542744 5.2193680075 9.4467676704 9.8083312066 
9.0600201684 8.9355145353 9.1867051692 7.3691343862 6.7018671975 8.9191147752 7.7229094333 8.7493970436 8.5428436457 
7.7662871352 8.5439993302 7.7899050711 7.9940896942 8.2283323208 8.6216226045 8.5331904052 9.1284235913 9.3066349112 
8.4812608643 9.2986209329 8.9952048672 8.5750050185 8.5144043568 8.1309345823 8.0789103692 8.0066393139 8.8203538227 
8.8799767123 8.1763903529 8.4052450412 8.8126355328 8.6065797899 8.9937609357 7.8012101903 9.4220788875 7.7935519459 
7.9949902781 9.2667047375 8.7783969482 8.9095179502 8.5485813484 8.8245711405 8.4756396132 7.4210743042 8.4345233448 
8.6980379811 6.7287568629 6.9584406294 7.0776802134 8.9369618885 9.4481532576 9.7307345923 7.5439085058 7.4609730504 
9.6407334925 7.955069141 9.3426768366 8.2205155872 9.2981500648 8.0701925451 7.9460289057 7.810981305 9.8193484867 
9.5809969543 7.6283040614 9.4616419117 7.6774478042 9.4692842502 9.2568599975 7.8593819171 7.6704525529 9.3280923953 
8.9666503976 8.0290129853 8.0236245789 8.2598600513 8.4199584465 8.4074740802 7.906477928 8.2117152702 8.2683039656 
2.6351579532 2.563986169 2.2055851904 2.1472481116 2.00983689 2.7080612881 2.3533302396 3.5629529108 3.4763849694 
3.0110015199 3.2301466926 2.4484630967 2.4403197658 4.6340016732 3.6273797135 2.594283265 4.7898215514 4.2103638125 
3.8409622411 3.618509018 5.1553312919 3.6975058377 3.6852653858 5.2140464606 4.166590713 4.6567196152 4.9989084493 
5.0422405333 4.7623755177 3.777111057 4.4511732244 5.6205143176 6.6443357288 3.0098300671 2.8028344371 7.1317236673 
2.4842890783 2.4527647039 7.7680592576 8.1420501261 2.6438380367 9.5260752844 9.7421478019 2.5647649304 3.2748335355 
9.8752357551 10.088568252 4.5232545483 9.4462557893 9.152735202 6.5542513913 8.9254628965 8.6687620382 8.7794507826 
8.2615331964 8.764419364 8.7040529474 7.8023776192 8.8201779905 8.7456979531 8.664985493 8.2295087591 8.4228009343 
9.2552598535 8.819046685 8.3906846025 9.221787468 9.4242079617 8.2296689227 8.8870363458 9.0274771302 8.0192231782 
8.3217251307 8.2795525836 8.5215604784 7.9616181678 8.0154287062 8.7656748089 8.4167275181 8.7013046855 9.2089166454 
9.3768094585 8.0748398275 8.3604892826 9.0677083184 8.6022107068 8.792196903 7.6954688279 8.049609085 8.3815519157 
7.8497243066 8.4166932941 7.4737176032 8.5014723127 8.9578626585 6.6563043369 6.5692933351 6.5894772368 7.2177644559 
7.0560653744 10.091412347 9.9171090355 7.9057874663 9.3628069099 8.4077255847 7.7701276399 9.0849686719 9.1067221931 
9.7379585955 8.1734107668 7.8362025869 7.9119928161 9.491479074 7.7139976577 7.6643319469 9.6295637563 9.4031839634 
7.5712267215 8.6948857953 7.920569435 7.7777669001 8.1934850719 8.6252431288 8.4041762925 8.6076315538 8.6604496523 
8.5275483076 2.0307316117 2.0500102462 2.1819351262 3.4432833131 2.6542516354 3.6106858723 1.8713754195 3.3506866758 
3.1978369884 2.4757096792 4.3092251229 2.7332281201 3.8762480962 3.2873248409 4.0765893521 4.4121896875 4.1172120602 
4.4191687097 3.9125912391 4.1017804343 4.3271686368 5.1715356632 4.745912313 6.0741045979 3.5001794993 4.0800300766 
3.2548448694 7.2866858397 2.9512970628 2.8741205465 8.4438889141 10.12850466 9.5459460115 9.029619848 2.9554520322 
3.2232889612 3.3461001376 10.183836023 3.8745457359 10.423417257 10.020494184 4.2780908689 9.4553995214 5.5918448784 
5.7777754821 8.7704235723 7.9981909124 9.2662500163 8.8613360329 9.1114715821 8.7736600282 9.2535037275 9.1346762168 
8.8724776301 9.2715362164 9.5866491203 8.8001893249 8.8332002822 8.214638164 8.1406445152 8.1570301644 8.0150664523 
8.4195800894 7.9028065179 7.7232270529 7.9277765101 8.5829546225 8.4198030056 7.8588566504 8.5671111029 9.1017161857 
8.9406113073 9.5556160294 9.3193018509 7.9255799205 7.7124529281 7.4484954328 8.4685452243 8.6696429255 7.3367367216 
7.0046072261 9.2306526014 6.767971987 9.7490308295 6.9529970914 7.4668571559 9.947603599 7.7501128509 8.4035356678 
9.0536046624 9.0173042241 9.0097146727 9.2851628598 7.6986607271 9.9063540434 10.061641412 7.3725074562 7.1947243589 
9.5797678165 7.2358244354 9.4909350348 7.7062553597 9.4830264495 9.1027430925 7.4573316083 8.0359964911 7.9680641025 
8.8496412546 8.8237385302 8.6211454277 8.3541855313 8.9847517049 9.0610871466 2.4283968476 2.4847907303 2.7327033031 
2.8835825308 3.1951780982 2.1594875243 2.3306899573 3.7405992862 2.4307645161 2.4538253536 3.5741535227 3.6587465919 
3.5659866774 3.9173964104 2.8763008092 2.9788199742 4.1593974138 3.8526640629 3.1284563379 3.7794381908 4.1248492205 
3.3671061275 3.6928983841 4.0073862729 4.0886602498 3.8029075033 4.3996186568 5.6699288005 3.6265268 3.252498159 
6.496683512 6.9519009455 7.6060006585 8.1778130356 2.9562940956 8.7762191834 2.4815346588 2.6605361127 3.4172922907 
9.8304329771 9.2436416617 9.1120689255 7.8154925692 8.8293967198 8.4646175219 8.9810412642 9.0520443154 8.9430444108 
8.5556684906 9.2983124841 8.2619056633 9.5682060493 9.5276829467 8.6529870291 9.7454709381 8.8837481359 9.3276948416 
8.4624225874 7.939136124 8.339474482 7.7471670441 7.5342804143 8.4305452676 8.8263719575 9.004820266 9.6213042538 
9.8057552397 8.8867324874 9.3272593439 8.8539527833 8.4309224895 7.5494340109 7.7694710634 8.6114770635 8.5941481883 
8.938129317 7.1285348091 9.9831675407 6.8613944616 6.7655372511 6.971018027 10.05906927 7.2858532349 7.6608718907 
10.262810413 8.0319031794 9.2003338948 8.1208008108 8.3810124515 9.2822673059 9.2058442996 9.5534103423 7.5188518996 
8.3687026711 6.9552574117 10.120716647 6.7209014931 9.8332994213 6.8535871387 9.5461230277 9.256970571 9.4682806152 
8.9607146623 9.1695289455 8.265364107 8.8354179937 8.9073207473 8.861655389 8.9138353916 3.2312748843 2.9023056316 
2.6686807447 3.6877238714 3.5269618865 2.5154998966 3.6141829636 2.6690171027 2.9747902547 4.1416916346 4.2574160296 
3.3150379361 4.3225052046 4.7665473527 5.0251294159 5.1694201235 3.6696874398 3.4732524988 3.539624089 5.8588209998 
7.9265917526 7.2611216576 8.77689115 3.4192655136 3.1814523447 9.3533215159 3.0445806377 10.047112066 2.694428237 
2.432724854 2.5544529981 3.095706646 10.459950652 10.486183425 10.580941063 4.0591233566 10.281663968 4.757284392 
9.405576462 5.6454585706 7.2186458024 8.8956096405 8.9270226892 8.9501329765 7.7497118424 7.0747028307 9.1390220917 
6.7369282768 9.2640969935 7.4442850494 9.5389963919 7.3640137275 9.5085738068 7.3052837394 9.535643181 9.0533396246 
8.2781259534 8.0382567927 8.4236321624 7.83141919 8.5351979276 8.2167645069 7.4479329305 7.6338584388 8.8001364458 
8.7462186746 9.2179232013 9.890958865 9.0387695047 8.7282489235 9.1828826755 8.2892260594 8.8563727605 6.7560137807 
6.7504644775 8.8916714667 6.6904770894 6.6803940892 7.0525628718 9.2808210087 10.021297617 7.7187594676 9.9590797797 
8.7943551278 9.9137814457 9.4849722971 8.4087356429 7.7156982215 8.7394657383 8.9500756594 7.5674687499 7.853178313 
7.3708779986 6.7566291612 9.8977180068 10.271374774 6.3224217505 10.277466267 7.030681705 6.7178316222 6.760839676 
9.6704895647 7.9591726606 7.6923316067 9.477912153 8.6334185728 9.1311526002 9.2123225845 9.0527653978 8.981824962 
9.1257137751 8.9741737803 8.6606057755 9.1131100652 8.7592070086 1.7977699968 1.9492232644 2.4212617634 2.7690163264 
2.6430393587 1.8311485589 1.9915000031 3.9876942371 3.4939958376 3.5869212046 3.7756689954 2.2728005639 1.8880244612 
2.2180419596 3.4844348571 3.6010190165 3.3352486607 3.5602714021 2.3418725114 3.5388015733 3.7031169048 2.6137489678 
5.4304460411 3.0776285545 3.0483153495 2.6207293588 6.2304410974 6.7613342583 3.0524577071 2.9727662073 2.7395397892 
10.368167566 10.567778969 3.0213081479 3.6958934566 4.403132033 4.7803256105 9.3719217916 9.1297266909 5.7720189613 
9.126060056 6.5994556211 7.3092468916 9.1116662179 6.4711285754 6.6627939585 6.575937983 9.7387610773 7.2871377205 
9.8013621297 7.2110306917 7.9357598819 8.0385806394 7.5121042991 7.5101793288 8.0969720185 8.5311204668 9.7217772784 
9.9234658396 8.909825808 8.6153060218 8.0820967589 7.8374065878 7.4099618364 8.9363922315 10.291869011 10.323219353 
9.634360076 9.5837183006 6.6750651116 10.164633928 9.8434210511 9.398460692 8.8908089259 8.439347862 7.5879536455 
9.1156342315 8.2168852003 7.3128859014 8.9321765685 7.252515152 8.6677257019 6.7576263711 9.2005002522 9.5311048371 
7.0804225579 6.9188051262 6.704376857 6.93326852 6.726663743 10.100744948 7.0769638938 7.4202315978 9.510194706 
9.1065335092 8.2752902736 8.5446756208 8.0811358165 8.9018614782 8.8550239076 8.9192546059 8.6413431506 8.8506805842 
9.040048695 8.9159776911 8.4310265101 8.6845475523 8.7056642309 2.3097436806 1.7430195903 1.6644529837 3.4504016925 
1.8947710738 3.7430451803 3.1864309577 2.1138790909 1.7252654463 3.0602545385 3.2842971868 2.2387158011 4.4352840442 