# vtk DataFile Version 4.2
vtk output
ASCII
DATASET POLYDATA
POINTS 9274 double
48.681192663 -64.02531805 -0.052714283537 50.163080137 -64.040841485 -0.034200417908 49.586217593 -62.91444167 0.090902553764 
51.214181865 -63.357479586 0.12256305409 52.002520551 -64.514443723 -0.00089073009266 51.104191069 -64.967401215 -0.10096210374 
52.783058167 -63.758937836 0.15881925821 53.798276527 -63.431121343 0.2835178243 54.511328736 -64.476563354 0.16110519964 
48.155487907 -62.819969907 0.12288402492 49.04966425 -61.948741495 0.27081671287 47.335025579 -61.217386573 0.40945671234 
48.380066388 -60.770236792 0.5284852897 50.67675998 -62.025491294 0.32586680058 51.455245729 -60.902938712 0.59735023858 
52.373711861 -62.467560654 0.35995547174 53.601225966 -61.916794631 0.5963578096 52.763752018 -61.307114322 0.64742145364 
47.346590674 -59.759321892 0.77104524817 49.873606741 -60.61166305 0.58201933996 49.49643647 -59.535288115 0.89916306308 
51.073498592 -59.888372712 0.83893160471 44.677770505 -60.834748607 0.63635723427 43.661441803 -59.445922852 0.95911759138 
45.648685932 -59.537558659 0.86125548825 45.799282755 -60.994512281 0.524853226 46.750596904 -58.627086257 1.1067701156 
52.246713221 -60.280103927 0.86880423406 48.119358573 -58.125350115 1.3175350585 47.196842706 -56.976171862 1.6471071091 
49.609634978 -57.631845106 1.5812164386 48.726528168 -58.780433655 1.128459096 57.544036099 -75.347101842 -1.5858287875 
58.279801618 -74.349590367 -1.5247529455 59.035100386 -75.3010697 -1.5730724855 59.293866564 -73.758122765 -1.3851518936 
60.34830889 -73.367581845 -1.2626240937 60.237530583 -75.085901214 -1.5249574334 61.320529674 -74.725843483 -1.4087863626 
59.093955994 -72.18031311 -1.0749554634 61.714592309 -73.529091504 -1.1604620398 55.838038342 -74.988093055 -1.4625033578 
55.500820791 -73.337050206 -1.3063325983 56.928544654 -74.31678233 -1.5053517553 56.777369586 -72.988397494 -1.3009161389 
57.977488924 -73.190803837 -1.318815922 56.130548411 -71.905079355 -1.1154401948 57.560386658 -72.266677856 -1.1539031267 
60.862280601 -72.282480281 -0.96962679058 62.166795026 -72.574495205 -0.88976713508 55.90246582 -70.632637024 -0.88768285513 
55.033496604 -69.514464869 -0.69381985926 55.034528697 -70.870678775 -0.93757168658 57.208770752 -70.83417511 -0.88670367002 
60.143367767 -71.283843994 -0.79333359003 61.284133972 -71.028958056 -0.61625755458 59.250865936 -69.252784729 -0.41965958476 
59.009799957 -70.107452393 -0.63330453634 60.304634718 -70.183666494 -0.52552893179 54.001141215 -68.655353665 -0.53842829271 
53.706902221 -69.556939962 -0.69747235852 56.171218872 -68.812225342 -0.52409571409 54.851531653 -67.744666966 -0.34985506434 
56.387902829 -65.657284171 0.13973037482 60.338571087 -69.100910874 -0.2445119958 57.541248322 -69.199165344 -0.54176098108 
59.394533813 -68.054368764 -0.097838441047 52.861832653 -70.46824559 -0.79500618124 53.93052635 -70.838763912 -0.89638969452 
52.52946818 -68.756440882 -0.56549250352 58.014728546 -68.132621765 -0.27818655968 52.905147791 -67.6455979 -0.38550910116 
57.858256521 -66.724667607 0.03683354958 49.904738894 -67.253502189 -0.3169375041 49.153708018 -66.229627079 -0.23085864637 
50.73055961 -66.121935767 -0.2367698688 51.063319691 -67.737210358 -0.3893338355 51.729533656 -66.651730891 -0.28251913845 
49.610044826 -65.127989303 -0.15185705884 52.159984545 -65.656654044 -0.14567733588 58.96819773 -66.949934936 0.13994069064 
48.315683718 -67.017456378 -0.22960491922 47.054876866 -66.063886335 -0.11360691509 47.915513032 -65.330704104 -0.1298117591 
53.634986839 -66.558767552 -0.1865693241 45.752825832 -65.530850854 0.021473416599 46.285305022 -64.76681754 -0.0018187388824 
47.093647929 -64.074057185 0.022736489883 44.906147587 -64.852967517 0.12495255625 45.448216422 -63.731700828 0.14770550536 
53.185052131 -65.195773603 -0.027507188139 54.062366486 -65.635093689 -0.031682282686 43.29733565 -63.235709894 0.38118467206 
43.90559673 -64.520605207 0.24798665211 44.256103653 -63.594827013 0.25549416975 44.951342492 -62.714366074 0.3141499871 
46.415473938 -63.163814545 0.16944955289 56.312153268 -63.961057827 0.55265117114 57.264820244 -64.655399867 0.51862607436 
43.807802233 -62.122749423 0.47567382163 42.510286128 -62.344091308 0.53290469367 41.882785021 -63.383225447 0.49289569944 
47.231620003 -62.55232941 0.20459985487 46.383311103 -61.974526285 0.32871833363 41.563982262 -61.722816495 0.64812096457 
42.63764804 -61.122330999 0.67914936464 43.385798612 -60.79547703 0.71381981316 41.402840055 -60.440915903 0.8181037131 
55.106884361 -63.424265134 0.48138022793 54.567031747 -61.999930073 0.74943742764 56.163248145 -62.618754664 0.8960704117 
55.972622303 -61.565639809 1.1860565577 42.207770621 -59.686861828 0.92431345744 39.800070321 -60.228192881 0.91765577439 
40.400549937 -61.345540064 0.75274666381 40.875145418 -59.332750538 1.0088968526 54.019409662 -60.206543339 1.2209016733 
52.830105513 -59.724640393 1.1636709259 39.126717877 -58.98054589 1.1363356399 39.124492429 -57.774687534 1.3440986089 
51.747664332 -58.448560992 1.4869151335 54.946293275 -60.711542048 1.2450808696 41.646224976 -58.463378906 1.1819671392 
45.457473755 -58.190555573 1.2738114595 50.726229829 -58.894237118 1.1948841669 55.452680031 -59.642502902 1.764373007 
50.857972189 -57.686018984 1.6875736316 53.32014247 -59.043846251 1.5211991543 54.790314338 -58.833010887 1.9453820507 
37.776528158 -56.989823692 1.5267779181 39.590717191 -56.453754417 1.6217555503 45.904644361 -56.696266323 1.6833999137 
44.731430849 -55.884121617 1.873038875 44.345226288 -57.521549225 1.4360127449 52.468636336 -58.013161635 1.8003793703 
53.512583562 -58.240587488 1.9115168466 42.728149414 -57.511463165 1.410115242 42.16346505 -55.525950688 1.8771372451 
41.077362061 -57.126018524 1.4869513512 48.312826528 -56.836363853 1.7773939323 43.466492272 -56.134070472 1.7575272209 
51.815680371 -56.978948258 2.1780859102 36.148563385 -57.18057251 1.6310601234 37.098144608 -56.014708247 1.8259299998 
37.635083231 -54.080256151 2.3713007674 38.349143321 -55.536298001 1.8640193179 40.72843495 -55.771071142 1.7902189123 
49.105666909 -56.251561998 2.0883178216 50.318003712 -56.725504145 2.0521143442 39.727734951 -53.663124451 2.4883028282 
39.313991183 -54.802711387 2.0713985484 47.643169323 -55.693428644 2.1334777544 46.32591926 -55.531865726 2.0620895126 
46.831384604 -54.590919644 2.4810073881 40.846634435 -54.621802889 2.1239786374 43.576401295 -54.617624096 2.2054013364 
42.232539221 -54.345681591 2.2603213856 45.052390779 -54.798377183 2.245510107 60.028602948 -79.035412898 -1.6562876244 
60.43807314 -77.620903213 -1.6295378555 61.290427726 -78.819694631 -1.6775301333 61.79328729 -77.816322999 -1.6371722667 
63.588210267 -78.40364763 -1.5117098579 62.64690292 -77.215021561 -1.5471105097 57.222323334 -76.418028812 -1.5826044999 
57.554833194 -77.673514005 -1.5507272372 58.309323076 -76.703223972 -1.6188593572 61.204654367 -76.211994959 -1.5355954906 
59.638454056 -76.702457162 -1.6138998474 63.874011121 -77.01409745 -1.3686040088 63.104459388 -75.960174744 -1.3272879564 
56.257401958 -76.33850133 -1.4987880851 55.175638605 -76.21835935 -1.3808465008 62.440603102 -75.202226188 -1.312772752 
54.705383103 -75.233589244 -1.3419207798 64.11259384 -74.342834488 -0.9118192852 62.807030806 -74.047417767 -1.0873900829 
52.934878862 -73.695706047 -1.0569755955 53.861604942 -73.075710719 -1.1563486094 54.410023289 -74.214217592 -1.2848929634 
65.442562523 -74.633644166 -0.64694887245 64.55387763 -75.486284003 -1.0094585443 52.647345506 -72.079113465 -0.9388564448 
63.588049797 -73.099679084 -0.75475347807 65.101811524 -73.600907058 -0.52444612698 54.581603298 -71.999572166 -1.0850703931 
51.366634837 -71.363681763 -0.72226921764 63.6182516 -71.967381838 -0.47306191651 64.788382473 -72.612451913 -0.35417889377 
62.368100341 -71.347963078 -0.53939659458 63.29755887 -70.738857144 -0.1568744599 51.684914213 -69.921962285 -0.66211514807 
50.417588385 -70.065247875 -0.53394946985 49.310074822 -69.880921584 -0.37789748473 50.01669399 -71.104235698 -0.50474013386 
61.822093241 -69.897676802 -0.21187219856 51.579880605 -68.541669841 -0.49859496819 50.730321543 -69.048476102 -0.49974439902 
63.513173882 -69.62125484 0.31772661631 49.429679155 -68.555312747 -0.35451371117 61.092727323 -68.220258917 0.18566253034 
62.333074838 -68.873771033 0.26917826679 48.344878867 -69.337513966 -0.23984891344 47.991520048 -68.081294238 -0.20727798825 
46.571685696 -67.27783864 -0.035887690374 46.821647434 -68.213252408 -0.037478523632 60.553318986 -66.988695375 0.49708599954 
62.123956413 -67.575122609 0.71095554826 45.700714762 -66.590802096 0.049848723862 59.396450489 -66.032486108 0.55040842346 
44.428989743 -65.994922668 0.1987565556 58.2432641 -65.398317387 0.49829946079 43.373006262 -65.404660488 0.32055861566 
42.725771036 -64.38514674 0.38254347512 40.711422833 -64.402840299 0.59821635427 41.738066506 -64.818906498 0.49719853308 
59.800285856 -65.080000357 1.0212951854 40.798206944 -63.141077702 0.57981572582 58.605666815 -64.030695593 1.0569278607 
39.702892964 -62.290518712 0.71453615599 39.851095936 -63.639082074 0.66999289136 38.808729713 -63.379195458 0.7896731534 
57.51770864 -63.098494658 1.0610247205 38.460656071 -62.283101062 0.81915098969 38.819194964 -61.355540542 0.84537713542 
37.749571598 -61.070652431 0.94285785443 37.388852686 -62.017375363 0.93398021537 58.955964145 -62.603693313 1.6769925585 
36.514676592 -60.78523826 1.0766285326 38.548301899 -59.941908401 1.0237243516 37.526249084 -60.060423312 1.07417856 
57.617367704 -61.659446633 1.5756483752 35.458782794 -60.129175921 1.222319162 36.667078263 -59.440177098 1.2174209143 
56.485303998 -60.584166996 1.652415954 34.868113086 -58.922684734 1.4147799819 34.094852271 -59.74485614 1.4123353761 
37.44304911 -58.286828269 1.3416449827 35.93306723 -58.548023982 1.4038926243 57.315542092 -60.083332886 2.0920549491 
[...]
POINT_DATA 9274
FIELD FieldData 3
thickness 1 9274 double
6.6503957822 6.8482943774 6.4165939486 6.6470389431 7.0094003109 7.0250953306 7.0954716825 6.8481620636 7.0042949736 
6.534856097 6.1294289267 6.6301497072 6.4796744603 6.3025538401 5.8972307176 6.0689726071 5.5242349 5.5142638412 
6.743277562 5.5529934897 6.4981086959 6.5017384025 7.7436327378 7.9527860846 7.0144056886 7.3147875531 6.7031418264 
5.7051835174 6.6662224512 7.0645597667 6.8545135893 6.5424466124 7.4406844776 6.8534543049 7.3150346196 6.5336686542 
6.5174112264 7.1306093069 6.8724278709 6.5011212401 6.5370217835 7.3624717893 7.0782244552 7.1142401587 6.8691842956 
6.6094367324 7.0177256183 6.5141380225 6.521532964 6.5498918119 7.0168747959 7.1865391867 7.4565615927 7.0312094401 
6.5361374049 6.6665545224 7.0810703993 7.3156647618 6.9668470941 7.1490091955 7.5607717907 7.0028017709 6.8688308509 
6.9950619345 6.9900475153 7.0686914428 6.8741301949 7.7155556626 7.5652632415 7.4448948115 7.017909056 7.0337224807 
6.8769914261 7.1816853925 7.3558862946 7.0429932184 7.2964471464 7.0339210196 7.0289285642 7.0047535571 6.6912437643 
7.5907156201 7.5470544159 7.247295382 6.6851972726 7.4091218515 7.1741428699 6.9539166824 7.3736779487 7.0884111617 
6.8126087902 6.5089356097 7.5975449494 7.4490460996 7.5586239329 7.3287616302 6.800786943 6.9743173176 6.996159757 
7.568329141 7.6520278153 7.7751898491 6.5448873153 6.755076426 7.6159190533 8.0188973138 7.946639635 7.9443143545 
6.8987323731 6.0093621884 6.7149501484 6.1266936778 8.0239280579 7.9219735563 7.6058240108 8.1974630794 5.7166066548 
6.1601109727 8.3685295749 8.3350488383 6.9339349406 6.0384445271 8.2515601502 6.7874494602 6.9187023631 6.2229811028 
7.1486438627 6.4360196995 6.5551741071 8.1701131708 7.6598224877 6.8440882642 7.0111321279 6.9039916157 6.9003440594 
6.6785227807 7.7838951758 7.4828813498 8.595194444 7.1205395865 7.3796788594 7.3007085408 7.4326177082 7.5065630011 
7.5673516348 7.4490166543 7.0744543513 7.6619636377 7.3793454014 7.3300440383 7.028693438 7.4637510023 7.0821641892 
7.3113445613 7.0407807362 7.285719254 7.5189360658 7.0643951814 8.532901768 8.5549909309 8.5706203653 8.2355927868 
7.5776548685 7.7772762695 7.8158282761 8.44129697 8.0051855589 8.0003533001 8.1813722513 7.5647289523 7.6738132388 
7.8355374747 7.8175415247 7.267651886 7.5505491755 7.086729779 6.6582799378 7.8466270493 7.5830902402 7.5638092252 
7.7747261921 7.5837078211 7.8379953745 6.8235398865 7.5413417031 7.52204553 8.0649745615 6.9196209185 7.291109456 
6.587976197 7.092190461 7.9662939078 8.0788121546 8.101401695 8.1666269027 7.0419680358 7.4650863218 7.920301886 
7.7356236805 7.7225732846 7.7348880784 7.9785281172 8.1650128314 7.6938312576 7.7047315849 7.8760474851 7.3404402872 
8.072950328 7.6524078409 7.1446894789 7.4140113045 7.2392136369 7.5268732828 7.6314585326 7.9602238693 7.8893150257 
7.4212517856 7.7101429692 7.6428011169 7.8244914329 7.8979155747 7.9733345276 7.581912522 8.0370132769 8.074276413 
8.0949615863 8.0192838342 8.0565203455 8.1981801351 8.0396560542 8.0099947189 6.9160589706 8.1764012439 7.8933852942 
6.1093286199 7.8066716532 8.2391553171 7.7391098832 7.6431233678 6.4025469063 6.3788118691 7.9026257183 7.363353284 
7.4126573874 7.8404719908 7.2676505905 7.0248917001 6.9055571229 7.2147296033 7.0845294029 7.5713204724 7.8173631059 
7.9314058218 8.0917590764 7.7377975816 7.9556128082 7.5512736066 7.0981687266 7.6991252135 7.4717454355 7.4354766793 
7.3296852138 7.2206531078 7.5949747457 7.5658856351 7.8807879192 7.794349521 7.44638573 7.4069348204 7.1658539285 
7.6062933831 6.1261412161 6.413910701 6.0314289865 6.551957291 6.8835474712 6.6599665244 6.7370705042 7.0249894521 
7.2827167044 7.4690503095 7.1354555637 7.1076799866 8.065111504 8.0301634951 7.8864808692 7.5749227956 7.0486746251 
7.5504568799 7.7842002708 8.5752231867 8.8550180059 8.3311191065 8.8426142075 7.5800057415 7.6657037718 7.8203131806 
8.2745278414 9.035864752 8.4594668686 9.0121668784 8.3738612561 7.8791052681 8.1006850356 7.854266412 7.711966679 
8.0078771593 8.2379508008 7.8474480684 7.8082436969 7.8714835555 8.1620478363 7.9990644137 8.4647401567 8.0010646722 
8.4171673692 7.6350789755 7.4624311264 7.9354670915 7.8026725812 8.3630617795 8.3410441931 8.203207306 8.5493387509 
8.8675609278 7.9300093605 7.7756513136 7.9744173055 7.9210308852 8.2049700475 8.2247378679 7.6554780947 8.1111728347 
7.4589666757 8.0997658128 8.1713060616 7.9274582943 7.7148327466 7.8489851943 8.258892939 8.5266362958 8.0732963655 
7.9624462548 8.547775908 8.8823987122 8.573724284 8.6811435685 6.8257565346 8.7477845013 8.3039502569 6.3554412147 
8.074351109 6.4366557595 7.8328143132 8.1521783641 8.037835241 6.8765057419 8.2407023549 8.1590983099 6.9226476896 
6.6585718491 7.4331749935 8.3419244043 8.1284019912 8.3451477855 8.0506099072 8.2652844481 7.8451194588 7.9697236565 
8.0159807046 8.0864101154 8.0644828665 7.4239822171 8.3251395144 7.9227234497 7.7040381788 7.5866005866 7.7730061536 
7.6290930392 7.6231862579 7.1632979553 7.2567137512 7.6194359038 8.3383202062 7.3463550397 7.3020823992 7.6275231339 
3.005313587 3.0112801379 3.0048388635 2.9975661578 3.464037029 3.13521874 3.0318138894 2.7390769805 2.7256074829 
3.0081372178 2.713340446 3.3926601843 3.5846135034 3.0172129878 2.5284904984 4.675923191 5.7370428399 4.0225915094 
4.3512171608 4.62569156 5.7438432042 3.5258763956 4.98256247 2.8872300155 2.6707923355 6.0147514474 5.3268094347 
3.0099465699 3.4593694397 3.7749491764 3.4573615573 3.2056598216 5.806460595 6.5804512408 5.9480961376 4.5416894493 
3.9675633374 6.7115564674 6.9328857551 6.2115971573 8.2377579958 7.0113034321 6.8431490952 4.2242760318 5.2209103246 
6.1180734873 7.5864193214 7.1270285521 5.6494372045 7.7555196892 8.7758659881 8.6398137516 8.6719333561 8.0563133956 
7.8978874984 7.9560238752 9.3538800954 9.1844651504 9.6392724518 10.53831624 11.053513583 9.8463579899 9.5563724281 
9.4786718242 8.9369922244 10.362317182 12.11689953 11.026613065 8.5170261598 8.2335755529 8.107208892 8.0876725021 
7.8479851593 8.9140416582 11.010022584 11.090348071 9.5695603417 8.0595435607 8.1773822095 8.3822312816 8.6906249802 
8.8224264072 7.929603897 8.2872058108 8.8700563116 9.1096504969 8.7934247379 8.9272715592 8.6438038628 8.5142541512 
8.7684960401 8.8149336654 8.5512366235 9.0195348185 8.6582188011 8.5416122899 9.2164288853 8.9961382102 8.6332663376 
8.3969513117 8.2784085819 7.4463630361 8.3299649812 8.2497644289 7.3628631183 8.1478355252 8.0903682099 8.3388959553 
8.3014558 7.5770671685 8.739610117 8.8506463278 9.2813806646 9.3147414757 9.3828523032 7.9463694781 9.2256245038 
8.0769799929 7.1868863299 8.4731450847 6.430133879 6.0852312635 7.8771246182 6.3763684213 8.7079852825 8.2064602723 
6.2870457716 6.6962338619 7.1175350357 7.7362271384 8.9213971221 7.7291526898 8.2721475594 9.2094688819 8.5970407577 
8.8112970741 8.5220998801 8.5166919121 8.3754724463 7.6760982407 8.8117364191 8.7028761876 8.7006279253 7.8079511703 
7.3749993681 7.5355712071 7.7362611727 7.384538901 7.533171537 8.1006153508 7.6385828083 7.8631266529 7.6400076503 
7.7588131145 3.8063556888 3.4110197852 3.5044164721 3.4201350032 3.484786191 3.4804453964 3.5162164236 3.0103780391 
3.1801774968 3.4894034867 3.4179864156 3.1481662255 3.2026903221 3.1342312776 3.0297785334 3.3956625517 3.0344313831 
3.5672161604 3.5245398163 3.7109824258 3.6554031127 3.4610823483 3.8727816005 3.632020426 3.1886169347 3.3723576484 
3.7263728474 3.9685401227 3.2166578472 3.0613459681 4.5276681034 4.3896855217 5.2459601962 3.2163878797 2.9129592645 
5.9517135422 3.8740740521 3.6842902282 5.4038558 6.1656173265 6.7288522336 3.8849588201 7.0056236298 7.1308090439 
7.0889493173 5.0805682375 4.7104218894 4.972826041 7.1822097532 4.6126383462 3.9029859738 7.7634560295 8.3877246789 
4.7736986611 7.135633811 9.1527862569 5.5288574204 5.1837217994 9.7081422805 9.1635334151 6.5685071245 9.2767010601 
8.8305566394 10.738794972 10.019054003 9.8095930436 8.5439154325 9.3469761641 8.3103300954 8.430399123 10.307710808 
8.3227421057 8.2652580208 8.3196793359 8.2348912166 8.7169153217 8.2102098799 8.5055685138 8.4641122036 8.6406878615 
8.4818058782 8.8339746617 9.1871782437 9.3640738117 8.7810502746 9.1885538612 9.0716127038 8.9911982157 8.7163365941 
8.4014371951 8.3078594556 8.4044579424 8.4597432343 8.2939137461 7.9367396191 7.4801776886 8.7364385496 8.4396903841 
9.1441977456 7.581524875 9.6244147734 7.9233874497 9.6127094752 9.1219390439 9.1886987038 8.4936975799 8.7702902346 
8.131014144 8.0509776983 8.203412252 7.2080134191 8.0441116882 6.6141007152 8.5364135868 9.1122780772 7.2096245641 
9.4801624587 7.7194205471 9.6485845154 8.0796531177 8.3813965178 8.6181176518 9.6047978885 9.343410698 8.4888028031 
9.2420287072 9.5766644967 8.0022830398 7.6501911411 9.2094049054 9.2819436651 8.8863023472 8.6386911996 7.6761198238 
7.7980293851 8.0652763496 3.5190185922 3.6856806061 3.4935810803 3.4479727878 3.3382198475 3.521216861 4.8742878843 
3.7867597246 4.4458379237 3.5635277026 4.3520565637 3.6047986891 3.3227312673 3.392748 3.5159075889 3.4565075894 
4.0042909543 4.0847648805 3.3783414698 3.5736081616 3.7329681619 3.4853317671 4.3515793388 4.2029063518 3.7000069049 
3.6667052281 4.0826884023 4.0120989459 3.9878990877 3.9560630357 3.3394568373 4.611673388 3.971968816 5.2290746406 
3.7267214107 5.8521154199 6.9990274363 3.4756558914 2.6153327517 2.5723596509 3.2165517576 4.014571836 2.6539985557 
8.2063606475 7.4983129626 7.86717184 7.2101001708 2.9199207192 8.6305986808 9.3294774955 3.1856427484 3.4746847771 
9.7244775891 9.8074958185 5.1265860906 3.9857359769 3.7223567787 5.0237132392 9.6379037069 8.8855054711 5.922094094 
6.4656560539 8.673794185 8.596929546 7.5390948166 8.619942919 7.356180429 8.5872635084 8.077611321 8.4697289319 
8.5062133468 8.3353581424 7.8250592281 8.2020813107 8.0435387949 8.5388029527 8.5736486748 7.8459164344 8.8863597917 
9.1121516903 8.2197335361 9.3066528293 8.4287672605 8.5471812573 9.322478907 8.5874111134 8.7352387696 8.4969319062 
8.8170442998 8.1446768762 8.2061462539 8.8320822199 8.98737045 8.3129068286 8.328797477 8.6158424877 8.325364382 
8.2868726711 7.9075264325 7.9221779461 9.303193294 9.6135003165 8.7158363905 8.7313616407 8.6756395453 8.2710328423 
8.4275889296 7.2337838244 7.0988712647 7.059937996 6.8646566875 6.8878242779 6.961899866 9.3464774127 9.6244594723 
7.5391320231 9.6621839378 9.5511037573 7.9080126919 7.9561207148 8.276753374 8.0796415547 9.6330585114 9.5278610835 
7.6920813309 7.6509249813 7.69074264 8.75194814 8.1958750445 7.8501777992 7.9631672603 7.9817441385 7.7655078723 
7.9543273529 8.3308572913 8.1769247968 8.3302807374 8.1063902417 3.8056453373 4.8760881938 3.8762181045 3.7824506393 
3.2488898375 2.9731921303 2.9075177173 3.3403435986 3.149407774 3.1630088369 2.9887830994 3.1646025549 3.6056774311 
4.2386056716 2.5884242763 4.5586345583 4.6817307776 3.4477450426 4.5997064471 5.0344632535 4.625021788 4.7056611301 
3.983142782 4.9447608308 3.5164581825 5.215062832 3.7357318864 3.9402434917 5.1872064902 4.5990924608 4.5347090472 
5.1517882067 5.8905006496 4.6826796003 6.3504148949 3.7599592717 7.0121627455 7.5168340913 2.1579824193 1.7959374313 
8.6639778333 9.262062906 2.7771538251 2.7346408086 9.2977808794 3.632542744 5.2193680075 9.4467676704 9.8083312066 
9.0600201684 8.9355145353 9.1867051692 7.3691343862 6.7018671975 8.9191147752 7.7229094333 8.7493970436 8.5428436457 
7.7662871352 8.5439993302 7.7899050711 7.9940896942 8.2283323208 8.6216226045 8.5331904052 9.1284235913 9.3066349112 
8.4812608643 9.2986209329 8.9952048672 8.5750050185 8.5144043568 8.1309345823 8.0789103692 8.0066393139 8.8203538227 
8.8799767123 8.1763903529 8.4052450412 8.8126355328 8.6065797899 8.9937609357 7.8012101903 9.4220788875 7.7935519459 
7.9949902781 9.2667047375 8.7783969482 8.9095179502 8.5485813484 8.8245711405 8.4756396132 7.4210743042 8.4345233448 
8.6980379811 6.7287568629 6.9584406294 7.0776802134 8.9369618885 9.4481532576 9.7307345923 7.5439085058 7.4609730504 
9.6407334925 7.955069141 9.3426768366 8.2205155872 9.2981500648 8.0701925451 7.9460289057 7.810981305 9.8193484867 
9.5809969543 7.6283040614 9.4616419117 7.6774478042 9.4692842502 9.2568599975 7.8593819171 7.6704525529 9.3280923953 
8.9666503976 8.0290129853 8.0236245789 8.2598600513 8.4199584465 8.4074740802 7.906477928 8.2117152702 8.2683039656 
2.6351579532 2.563986169 2.2055851904 2.1472481116 2.00983689 2.7080612881 2.3533302396 3.5629529108 3.4763849694 
3.0110015199 3.2301466926 2.4484630967 2.4403197658 4.6340016732 3.6273797135 2.594283265 4.7898215514 4.2103638125 
3.8409622411 3.618509018 5.1553312919 3.6975058377 3.6852653858 5.2140464606 4.166590713 4.6567196152 4.9989084493 
5.0422405333 4.7623755177 3.777111057 4.4511732244 5.6205143176 6.6443357288 3.0098300671 2.8028344371 7.1317236673 
2.4842890783 2.4527647039 7.7680592576 8.1420501261 2.6438380367 9.5260752844 9.7421478019 2.5647649304 3.2748335355 
9.8752357551 10.088568252 4.5232545483 9.4462557893 9.152735202 6.5542513913 8.9254628965 8.6687620382 8.7794507826 
8.2615331964 8.764419364 8.7040529474 7.8023776192 8.8201779905 8.7456979531 8.664985493 8.2295087591 8.4228009343 
9.2552598535 8.819046685 8.3906846025 9.221787468 9.4242079617 8.2296689227 8.8870363458 9.0274771302 8.0192231782 
8.3217251307 8.2795525836 8.5215604784 7.9616181678 8.0154287062 8.7656748089 8.4167275181 8.7013046855 9.2089166454 
9.3768094585 8.0748398275 8.3604892826 9.0677083184 8.6022107068 8.792196903 7.6954688279 8.049609085 8.3815519157 
7.8497243066 8.4166932941 7.4737176032 8.5014723127 8.9578626585 6.6563043369 6.5692933351 6.5894772368 7.2177644559 
7.0560653744 10.091412347 9.9171090355 7.9057874663 9.3628069099 8.4077255847 7.7701276399 9.0849686719 9.1067221931 
9.7379585955 8.1734107668 7.8362025869 7.9119928161 9.491479074 7.7139976577 7.6643319469 9.6295637563 9.4031839634 
7.5712267215 8.6948857953 7.920569435 7.7777669001 8.1934850719 8.6252431288 8.4041762925 8.6076315538 8.6604496523 
8.5275483076 2.0307316117 2.0500102462 2.1819351262 3.4432833131 2.6542516354 3.6106858723 1.8713754195 3.3506866758 
3.1978369884 2.4757096792 4.3092251229 2.7332281201 3.8762480962 3.2873248409 4.0765893521 4.4121896875 4.1172120602 
4.4191687097 3.9125912391 4.1017804343 4.3271686368 5.1715356632 4.745912313 6.0741045979 3.5001794993 4.0800300766 
3.2548448694 7.2866858397 2.9512970628 2.8741205465 8.4438889141 10.12850466 9.5459460115 9.029619848 2.9554520322 
3.2232889612 3.3461001376 10.183836023 3.8745457359 10.423417257 10.020494184 4.2780908689 9.4553995214 5.5918448784 
5.7777754821 8.7704235723 7.9981909124 9.2662500163 8.8613360329 9.1114715821 8.7736600282 9.2535037275 9.1346762168 
8.8724776301 9.2715362164 9.5866491203 8.8001893249 8.8332002822 8.214638164 8.1406445152 8.1570301644 8.0150664523 
8.4195800894 7.9028065179 7.7232270529 7.9277765101 8.5829546225 8.4198030056 7.8588566504 8.5671111029 9.1017161857 
8.9406113073 9.5556160294 9.3193018509 7.9255799205 7.7124529281 7.4484954328 8.4685452243 8.6696429255 7.3367367216 
7.0046072261 9.2306526014 6.767971987 9.7490308295 6.9529970914 7.4668571559 9.947603599 7.7501128509 8.4035356678 
9.0536046624 9.0173042241 9.0097146727 9.2851628598 7.6986607271 9.9063540434 10.061641412 7.3725074562 7.1947243589 
9.5797678165 7.2358244354 9.4909350348 7.7062553597 9.4830264495 9.1027430925 7.4573316083 8.0359964911 7.9680641025 
8.8496412546 8.8237385302 8.6211454277 8.3541855313 8.9847517049 9.0610871466 2.4283968476 2.4847907303 2.7327033031 
2.8835825308 3.1951780982 2.1594875243 2.3306899573 3.7405992862 2.4307645161 2.4538253536 3.5741535227 3.6587465919 
3.5659866774 3.9173964104 2.8763008092 2.9788199742 4.1593974138 3.8526640629 3.1284563379 3.7794381908 4.1248492205 
3.3671061275 3.6928983841 4.0073862729 4.0886602498 3.8029075033 4.3996186568 5.6699288005 3.6265268 3.252498159 
6.496683512 6.9519009455 7.6060006585 8.1778130356 2.9562940956 8.7762191834 2.4815346588 2.6605361127 3.4172922907 
9.8304329771 9.2436416617 9.1120689255 7.8154925692 8.8293967198 8.4646175219 8.9810412642 9.0520443154 8.9430444108 
8.5556684906 9.2983124841 8.2619056633 9.5682060493 9.5276829467 8.6529870291 9.7454709381 8.8837481359 9.3276948416 
8.4624225874 7.939136124 8.339474482 7.7471670441 7.5342804143 8.4305452676 8.8263719575 9.004820266 9.6213042538 
9.8057552397 8.8867324874 9.3272593439 8.8539527833 8.4309224895 7.5494340109 7.7694710634 8.6114770635 8.5941481883 
8.938129317 7.1285348091 9.9831675407 6.8613944616 6.7655372511 6.971018027 10.05906927 7.2858532349 7.6608718907 
10.262810413 8.0319031794 9.2003338948 8.1208008108 8.3810124515 9.2822673059 9.2058442996 9.5534103423 7.5188518996 
8.3687026711 6.9552574117 10.120716647 6.7209014931 9.8332994213 6.8535871387 9.5461230277 9.256970571 9.4682806152 
8.9607146623 9.1695289455 8.265364107 8.8354179937 8.9073207473 8.861655389 8.9138353916 3.2312748843 2.9023056316 
2.6686807447 3.6877238714 3.5269618865 2.5154998966 3.6141829636 2.6690171027 2.9747902547 4.1416916346 4.2574160296 
3.3150379361 4.3225052046 4.7665473527 5.0251294159 5.1694201235 3.6696874398 3.4732524988 3.539624089 5.8588209998 
7.9265917526 7.2611216576 8.77689115 3.4192655136 3.1814523447 9.3533215159 3.0445806377 10.047112066 2.694428237 
2.432724854 2.5544529981 3.095706646 10.459950652 10.486183425 10.580941063 4.0591233566 10.281663968 4.757284392 
9.405576462 5.6454585706 7.2186458024 8.8956096405 8.9270226892 8.9501329765 7.7497118424 7.0747028307 9.1390220917 
6.7369282768 9.2640969935 7.4442850494 9.5389963919 7.3640137275 9.5085738068 7.3052837394 9.535643181 9.0533396246 
8.2781259534 8.0382567927 8.4236321624 7.83141919 8.5351979276 8.2167645069 7.4479329305 7.6338584388 8.8001364458 
8.7462186746 9.2179232013 9.890958865 9.0387695047 8.7282489235 9.1828826755 8.2892260594 8.8563727605 6.7560137807 
6.7504644775 8.8916714667 6.6904770894 6.6803940892 7.0525628718 9.2808210087 10.021297617 7.7187594676 9.9590797797 
8.7943551278 9.9137814457 9.4849722971 8.4087356429 7.7156982215 8.7394657383 8.9500756594 7.5674687499 7.853178313 
7.3708779986 6.7566291612 9.8977180068 10.271374774 6.3224217505 10.277466267 7.030681705 6.7178316222 6.760839676 
9.6704895647 7.9591726606 7.6923316067 9.477912153 8.6334185728 9.1311526002 9.2123225845 9.0527653978 8.981824962 
9.1257137751 8.9741737803 8.6606057755 9.1131100652 8.7592070086 1.7977699968 1.9492232644 2.4212617634 2.7690163264 
2.6430393587 1.8311485589 1.9915000031 3.9876942371 3.4939958376 3.5869212046 3.7756689954 2.2728005639 1.8880244612 
2.2180419596 3.4844348571 3.6010190165 3.3352486607 3.5602714021 2.3418725114 3.5388015733 3.7031169048 2.6137489678 
5.4304460411 3.0776285545 3.0483153495 2.6207293588 6.2304410974 6.7613342583 3.0524577071 2.9727662073 2.7395397892 
10.368167566 10.567778969 3.0213081479 3.6958934566 4.403132033 4.7803256105 9.3719217916 9.1297266909 5.7720189613 
9.126060056 6.5994556211 7.3092468916 9.1116662179 6.4711285754 6.6627939585 6.575937983 9.7387610773 7.2871377205 
9.8013621297 7.2110306917 7.9357598819 8.0385806394 7.5121042991 7.5101793288 8.0969720185 8.5311204668 9.7217772784 
9.9234658396 8.909825808 8.6153060218 8.0820967589 7.8374065878 7.4099618364 8.9363922315 10.291869011 10.323219353 
9.634360076 9.5837183006 6.6750651116 10.164633928 9.8434210511 9.398460692 8.8908089259 8.439347862 7.5879536455 
9.1156342315 8.2168852003 7.3128859014 8.9321765685 7.252515152 8.6677257019 6.7576263711 9.2005002522 9.5311048371 
7.0804225579 6.9188051262 6.704376857 6.93326852 6.726663743 10.100744948 7.0769638938 7.4202315978 9.510194706 
9.1065335092 8.2752902736 8.5446756208 8.0811358165 8.9018614782 8.8550239076 8.9192546059 8.6413431506 8.8506805842 
9.040048695 8.9159776911 8.4310265101 8.6845475523 8.7056642309 2.3097436806 1.7430195903 1.6644529837 3.4504016925 
1.8947710738 3.7430451803 3.1864309577 2.1138790909 1.7252654463 3.0602545385 3.2842971868 2.2387158011 4.4352840442 