# vtk DataFile Version 4.2
vtk output
ASCII
DATASET POLYDATA
POINTS 9274 float
0.047796 0.208713 0 0.0516562 0.199595 0 0.057554 0.206353 0 
0.0587398 0.195211 0 0.0534037 0.18741 0 0.0482554 0.191327 0 
0.0599983 0.184943 0 0.0643681 0.17999 0 0.0596879 0.173388 0 
0.0545458 0.215697 0 0.0627978 0.212438 0 0.0637281 0.225733 0 
0.0694789 0.220043 0 0.0661634 0.202007 0 0.0753868 0.199982 0 
0.0671954 0.190613 0 0.0734383 0.184723 0 0.0755892 0.19107 0 
0.0745178 0.229714 0 0.0739482 0.210676 0 0.0808806 0.215791 0 
0.0815413 0.204734 0 0.0599483 0.245453 0 0.0682039 0.257153 0 
0.07228 0.242259 0 0.0616154 0.236979 0 0.081816 0.236889 0 
0.0813178 0.196514 0 0.0886202 0.228527 0 0.0957098 0.23776 0 
0.0953084 0.219361 0 0.0849033 0.222781 0 0.0111728 0.12817 0 
0.0175941 0.12829 0 0.0155519 0.122632 0 0.02293 0.125982 0 
0.0273424 0.122883 0 0.0196484 0.118729 0 0.0239103 0.115659 0 
0.0296331 0.131072 0 0.0299746 0.117194 0 0.0076835 0.136055 0 
0.0143506 0.142829 0 0.0139592 0.133775 0 0.0196998 0.138499 0 
0.0220553 0.132905 0 0.0231617 0.144601 0 0.0253051 0.13733 0 
0.0335365 0.123604 0 0.035241 0.117729 0 0.0289591 0.149476 0 
0.0324571 0.156902 0 0.0252928 0.152755 0 0.031423 0.142929 0 
0.0365071 0.129025 0 0.0403419 0.124884 0 0.0444258 0.137897 0 
0.0395487 0.13689 0 0.0422001 0.131026 0 0.0343482 0.164572 0 
0.0285237 0.163253 0 0.0391997 0.153431 0 0.0417203 0.162915 0 
0.0571383 0.160485 0 0.0476481 0.133377 0 0.0404909 0.145845 0 
0.0509143 0.140042 0 0.0210456 0.164493 0 0.0222777 0.158089 0 
0.0295787 0.171796 0 0.0473202 0.146304 0 0.0370708 0.173296 0 
0.0545984 0.150509 0 0.0306883 0.191057 0 0.0348297 0.198822 0 
0.0400628 0.18999 0 0.0312421 0.182959 0 0.0396477 0.182714 0 
0.0431713 0.199638 0 0.0468074 0.183278 0 0.0558576 0.144592 0 
0.0272455 0.20112 0 0.0294972 0.212156 0 0.0369854 0.209305 0 
0.0453801 0.172592 0 0.0290003 0.222355 0 0.0359193 0.221555 0 
0.0430702 0.218639 0 0.0310583 0.230393 0 0.0406926 0.230643 0 
0.0522228 0.178865 0 0.0517848 0.172836 0 0.0378685 0.247351 0 
0.0302416 0.238432 0 0.038109 0.239297 0 0.0466313 0.237477 0 
0.0475019 0.226038 0 0.0669563 0.16485 0 0.0649494 0.158247 0 
0.0477987 0.24754 0 0.0422875 0.256233 0 0.0322759 0.257088 0 
0.054016 0.222534 0 0.0559199 0.229969 0 0.0442845 0.26549 0 
0.0521764 0.259484 0 0.0568399 0.255009 0 0.0540853 0.271139 0 
0.067405 0.172648 0 0.0750569 0.178906 0 0.0747261 0.168541 0 
0.0808905 0.171735 0 0.062452 0.267445 0 0.0511705 0.284472 0 
0.0437606 0.275761 0 0.061679 0.278959 0 0.0856295 0.185868 0 
0.0864065 0.194081 0 0.0598173 0.294234 0 0.0702294 0.298254 0 
0.0933068 0.203507 0 0.0842395 0.179349 0 0.0710479 0.275602 0 
0.0825364 0.247433 0 0.0880481 0.209171 0 0.0923796 0.178298 0 
0.0972922 0.210842 0 0.0921954 0.19237 0 0.0966302 0.183682 0 
0.0735658 0.312275 0 0.0830707 0.298528 0 0.0953477 0.247881 0 
0.0996006 0.258702 0 0.0853841 0.257531 0 0.0979401 0.199685 0 
0.0983229 0.19262 0 0.0816697 0.269991 0 0.097211 0.279906 0 
0.0809691 0.284278 0 0.0990127 0.230081 0 0.094869 0.267922 0 
0.104551 0.20578 0 0.0674259 0.325988 0 0.0808128 0.321497 0 
0.100518 0.322753 0 0.0882866 0.311935 0 0.091847 0.291004 0 
0.105158 0.225673 0 0.103717 0.216331 0 0.109094 0.305302 0 
0.0973642 0.305735 0 0.106863 0.237297 0 0.105615 0.247376 0 
0.114464 0.245497 0 0.102395 0.293154 0 0.108021 0.270739 0 
0.107813 0.282316 0 0.109382 0.258696 0 0.00337877 0.108103 0 
0.00995962 0.110906 0 0.00772491 0.10463 0 0.0128223 0.10577 0 
0.0152652 0.0983945 0 0.0172849 0.104528 0 0.00561715 0.126068 0 
0.00137726 0.120814 0 0.00762812 0.121154 0 0.017567 0.112147 0 
0.0114032 0.116352 0 0.0210774 0.100937 0 0.0233171 0.106146 0 
0.00299665 0.129995 0 7.4971e-05 0.134596 0 0.0247377 0.11037 0 
0.00300679 0.139869 0 0.0321771 0.106388 0 0.0303679 0.111836 0 
0.00450226 0.152889 0 0.0106049 0.150886 0 0.00682559 0.144588 0 
0.0340301 0.100968 0 0.0286145 0.10222 0 0.0118051 0.159974 0 
0.0362063 0.111076 0 0.0374735 0.104364 0 0.018216 0.151235 0 
0.0114474 0.168827 0 0.0412341 0.113413 0 0.0409867 0.107555 0 
0.0412883 0.119724 0 0.0462091 0.117223 0 0.0204415 0.172288 0 
0.0155281 0.1784 0 0.0128896 0.18508 0 0.00823454 0.176668 0 
0.0469986 0.125147 0 0.0280202 0.177517 0 0.0224484 0.18034 0 
0.0521249 0.118529 0 0.0212273 0.189242 0 0.0538572 0.131905 0 
0.0532716 0.125057 0 0.0128166 0.192511 0 0.0194438 0.199239 0 
0.0198683 0.210784 0 0.0145812 0.205733 0 0.0592264 0.136932 0 
0.0595491 0.128479 0 0.0215413 0.21884 0 0.061924 0.144467 0 
0.0213816 0.229398 0 0.0629075 0.15158 0 0.0220229 0.238826 0 
0.0274074 0.247247 0 0.0204347 0.261846 0 0.0207768 0.252673 0 
0.0682488 0.144334 0 0.0306341 0.266071 0 0.0716568 0.152495 0 
0.0338825 0.277694 0 0.0234937 0.271356 0 0.0219841 0.28047 0 
0.0747596 0.160136 0 0.0298362 0.28753 0 0.0387452 0.288209 0 
0.0377197 0.297977 0 0.0284532 0.29726 0 0.0809325 0.153238 0 
0.0361481 0.309386 0 0.0498461 0.295617 0 0.045714 0.303668 0 
0.0837719 0.162287 0 0.038483 0.321009 0 0.048502 0.313241 0 
0.0882169 0.170612 0 0.0475062 0.330906 0 0.0374501 0.334592 0 
0.0610518 0.310769 0 0.054268 0.322952 0 0.0931604 0.166619 0 
0.0993113 0.174536 0 0.0469108 0.345924 0 0.0597138 0.33472 0 
0.0599705 0.344133 0 0.0574229 0.355738 0 0.0679857 0.350154 0 
0.074421 0.338799 0 0.102917 0.188875 0 0.105687 0.196469 0 
0.0825276 0.348904 0 0.0761235 0.359147 0 0.112334 0.199498 0 
0.114138 0.21738 0 0.114872 0.224924 0 0.112154 0.209411 0 
0.116425 0.232227 0 0.0937388 0.353966 0 0.0851573 0.332841 0 
0.120978 0.240958 0 0.11629 0.31695 0 0.115012 0.28926 0 
0.117535 0.264133 0 0.12098 0.252797 0 0.121172 0.275465 0 
0.0966623 0.339027 0 0.127415 0.236612 0 0.109845 0.331358 0 
0.120194 0.303491 0 0.130244 0.277203 0 0.127763 0.261656 0 
0.126368 0.290707 0 0.00271237 0.0726383 0 0.00303116 0.0765617 0 
0.00732558 0.0730634 0 0.00876694 0.0789717 0 0.0121722 0.0756661 0 
0.0124705 0.0712176 0 0.00450774 0.0810045 0 0.00654804 0.0843799 0 
-0.00251639 0.0932461 0 0.0021822 0.0963037 0 0.00186053 0.0908971 0 
0.0136093 0.0805726 0 0.00274201 0.102033 0 0.00895111 0.0997193 0 
0.0139272 0.0859232 0 0.00952599 0.0884911 0 0.00280413 0.0864636 0 
0.00614343 0.092942 0 0.011929 0.0931159 0 0.0186989 0.0827048 0 
0.0211962 0.0872294 0 -0.00187343 0.106533 0 -0.000137022 0.111969 0 
0.0242809 0.0983071 0 0.0181087 0.0921683 0 0.0224738 0.0927011 0 
-0.00326934 0.12578 0 -0.00581842 0.120749 0 0.00539147 0.115541 0 
-0.00260883 0.116271 0 0.025642 0.0910454 0 -0.00469142 0.138816 0 
-0.00542938 0.130964 0 -0.00397881 0.152473 0 -0.000523919 0.146167 0 
-0.0095333 0.146558 0 0.0279247 0.094185 0 0.0310664 0.0971148 0 
-0.00144088 0.159133 0 0.0041992 0.16212 0 0.00183879 0.175842 0 
-0.00438291 0.168945 0 0.0359822 0.0963498 0 0.0404616 0.100527 0 
0.00290136 0.186488 0 0.0459289 0.103463 0 0.0461014 0.109717 0 
0.0515087 0.112596 0 0.0505497 0.106314 0 0.00729319 0.19678 0 
0.00513558 0.205873 0 0.00959121 0.213864 0 0.0587544 0.120517 0 
0.0579384 0.113749 0 0.0138225 0.222718 0 0.0646822 0.123625 0 
0.0102746 0.2312 0 0.0149018 0.241087 0 0.0106758 0.256909 0 
0.0101791 0.248136 0 0.066053 0.131192 0 0.0111434 0.266385 0 
0.0672165 0.137438 0 0.00971009 0.284397 0 0.0120527 0.275071 0 
0.0198862 0.289682 0 0.074978 0.139138 0 0.0753351 0.14704 0 
0.0142121 0.310336 0 0.0258309 0.316116 0 0.0240563 0.306665 0 
0.0174295 0.299227 0 0.0819278 0.144074 0 0.0240138 0.339031 0 
0.0326102 0.345333 0 0.0265305 0.32729 0 0.0890026 0.156316 0 
0.0245943 0.355722 0 0.0368447 0.356884 0 0.0971316 0.160496 0 
0.0470925 0.363676 0 0.10237 0.168072 0 0.0385339 0.373067 0 
0.0566023 0.370071 0 0.0707656 0.369502 0 0.105211 0.18164 0 
0.0641825 0.38114 0 0.0509394 0.382076 0 0.110535 0.179002 0 
0.110329 0.171573 0 0.111402 0.18978 0 0.0761739 0.382238 0 
0.0869449 0.374499 0 0.120169 0.205361 0 0.119901 0.195849 0 
0.123881 0.21528 0 0.0996828 0.367153 0 0.108182 0.356467 0 
0.108746 0.344082 0 0.126431 0.227462 0 0.132497 0.220691 0 
0.130205 0.247216 0 0.122027 0.351641 0 0.122727 0.338069 0 
0.126852 0.325104 0 0.132937 0.309022 0 0.137617 0.319986 0 
0.132853 0.299636 0 0.136481 0.289228 0 0.13835 0.267478 0 
0.13709 0.254949 0 0.136261 0.237624 0 0.138468 0.334296 0 
0.142848 0.245821 0 0.142715 0.278653 0 0.152097 0.285232 0 
0.00113317 0.0379034 0 -0.00146147 0.038317 0 9.86026e-06 0.040712 0 
0.00244178 0.0405002 0 -0.00132147 0.044675 0 0.00223145 0.0467218 0 
0.000653153 0.0436689 0 0.00335278 0.0432434 0 0.00549696 0.0411587 0 
0.00404184 0.0498108 0 0.00570087 0.0454236 0 0.000121473 0.0486772 0 
0.00134749 0.0523582 0 0.00555001 0.0524522 0 0.00749809 0.0428089 0 
-0.00258836 0.0569515 0 0.000761775 0.0588599 0 0.00233243 0.05564 0 
-0.00216543 0.0535407 0 -0.0026342 0.061461 0 0.00299021 0.0615136 0 
0.00579318 0.0573052 0 0.00802845 0.0620121 0 0.00837401 0.0476612 0 
0.00924875 0.0444281 0 0.00264411 0.0661022 0 -0.0028431 0.0657689 0 
0.00879193 0.0509532 0 0.0124483 0.0532957 0 0.0103115 0.0568293 0 
0.0084092 0.0537889 0 0.0120965 0.0491168 0 -0.000951356 0.0697082 0 
-0.00241607 0.0750887 0 0.00785842 0.0683227 0 0.0135016 0.0595894 0 
0.0156338 0.055223 0 0.000791796 0.080475 0 -0.00339247 0.0804837 0 
0.0141481 0.0654761 0 0.0176316 0.0731085 0 -0.00133217 0.0865904 0 
-0.00587504 0.0845294 0 0.0180553 0.0578276 0 0.0177977 0.0611126 0 
0.0188918 0.0635793 0 -0.0070511 0.0963037 0 -0.00644459 0.0903609 0 
0.0222164 0.0596698 0 0.0209106 0.0666704 0 0.0208842 0.0698728 0 
-0.00759581 0.107172 0 -0.0119409 0.102666 0 -0.00624356 0.101738 0 
-0.00163067 0.100007 0 0.0169954 0.0776682 0 -0.0128189 0.11021 0 
-0.00743285 0.112492 0 0.0254838 0.0697203 0 0.0234166 0.0775233 0 
0.0239928 0.0822811 0 0.0225331 0.0734657 0 -0.01443 0.120289 0 
-0.00978201 0.117113 0 -0.0116125 0.12619 0 0.0280162 0.0881006 0 
0.0292823 0.0817452 0 0.0296006 0.0773712 0 -0.0116078 0.133221 0 
-0.0103378 0.139725 0 -0.0141841 0.16163 0 -0.0125568 0.154682 0 
[...]
POINT_DATA 9274
FIELD FieldData 3
thickness 1 9274 double
6.6503957822 6.8482943774 6.4165939486 6.6470389431 7.0094003109 7.0250953306 7.0954716825 6.8481620636 7.0042949736 
6.534856097 6.1294289267 6.6301497072 6.4796744603 6.3025538401 5.8972307176 6.0689726071 5.5242349 5.5142638412 
6.743277562 5.5529934897 6.4981086959 6.5017384025 7.7436327378 7.9527860846 7.0144056886 7.3147875531 6.7031418264 
5.7051835174 6.6662224512 7.0645597667 6.8545135893 6.5424466124 7.4406844776 6.8534543049 7.3150346196 6.5336686542 
6.5174112264 7.1306093069 6.8724278709 6.5011212401 6.5370217835 7.3624717893 7.0782244552 7.1142401587 6.8691842956 
6.6094367324 7.0177256183 6.5141380225 6.521532964 6.5498918119 7.0168747959 7.1865391867 7.4565615927 7.0312094401 
6.5361374049 6.6665545224 7.0810703993 7.3156647618 6.9668470941 7.1490091955 7.5607717907 7.0028017709 6.8688308509 
6.9950619345 6.9900475153 7.0686914428 6.8741301949 7.7155556626 7.5652632415 7.4448948115 7.017909056 7.0337224807 
6.8769914261 7.1816853925 7.3558862946 7.0429932184 7.2964471464 7.0339210196 7.0289285642 7.0047535571 6.6912437643 
7.5907156201 7.5470544159 7.247295382 6.6851972726 7.4091218515 7.1741428699 6.9539166824 7.3736779487 7.0884111617 
6.8126087902 6.5089356097 7.5975449494 7.4490460996 7.5586239329 7.3287616302 6.800786943 6.9743173176 6.996159757 
7.568329141 7.6520278153 7.7751898491 6.5448873153 6.755076426 7.6159190533 8.0188973138 7.946639635 7.9443143545 
6.8987323731 6.0093621884 6.7149501484 6.1266936778 8.0239280579 7.9219735563 7.6058240108 8.1974630794 5.7166066548 
6.1601109727 8.3685295749 8.3350488383 6.9339349406 6.0384445271 8.2515601502 6.7874494602 6.9187023631 6.2229811028 
7.1486438627 6.4360196995 6.5551741071 8.1701131708 7.6598224877 6.8440882642 7.0111321279 6.9039916157 6.9003440594 
6.6785227807 7.7838951758 7.4828813498 8.595194444 7.1205395865 7.3796788594 7.3007085408 7.4326177082 7.5065630011 
7.5673516348 7.4490166543 7.0744543513 7.6619636377 7.3793454014 7.3300440383 7.028693438 7.4637510023 7.0821641892 
7.3113445613 7.0407807362 7.285719254 7.5189360658 7.0643951814 8.532901768 8.5549909309 8.5706203653 8.2355927868 
7.5776548685 7.7772762695 7.8158282761 8.44129697 8.0051855589 8.0003533001 8.1813722513 7.5647289523 7.6738132388 
7.8355374747 7.8175415247 7.267651886 7.5505491755 7.086729779 6.6582799378 7.8466270493 7.5830902402 7.5638092252 
7.7747261921 7.5837078211 7.8379953745 6.8235398865 7.5413417031 7.52204553 8.0649745615 6.9196209185 7.291109456 
6.587976197 7.092190461 7.9662939078 8.0788121546 8.101401695 8.1666269027 7.0419680358 7.4650863218 7.920301886 
7.7356236805 7.7225732846 7.7348880784 7.9785281172 8.1650128314 7.6938312576 7.7047315849 7.8760474851 7.3404402872 
8.072950328 7.6524078409 7.1446894789 7.4140113045 7.2392136369 7.5268732828 7.6314585326 7.9602238693 7.8893150257 
7.4212517856 7.7101429692 7.6428011169 7.8244914329 7.8979155747 7.9733345276 7.581912522 8.0370132769 8.074276413 
8.0949615863 8.0192838342 8.0565203455 8.1981801351 8.0396560542 8.0099947189 6.9160589706 8.1764012439 7.8933852942 
6.1093286199 7.8066716532 8.2391553171 7.7391098832 7.6431233678 6.4025469063 6.3788118691 7.9026257183 7.363353284 
7.4126573874 7.8404719908 7.2676505905 7.0248917001 6.9055571229 7.2147296033 7.0845294029 7.5713204724 7.8173631059 
7.9314058218 8.0917590764 7.7377975816 7.9556128082 7.5512736066 7.0981687266 7.6991252135 7.4717454355 7.4354766793 
7.3296852138 7.2206531078 7.5949747457 7.5658856351 7.8807879192 7.794349521 7.44638573 7.4069348204 7.1658539285 
7.6062933831 6.1261412161 6.413910701 6.0314289865 6.551957291 6.8835474712 6.6599665244 6.7370705042 7.0249894521 
7.2827167044 7.4690503095 7.1354555637 7.1076799866 8.065111504 8.0301634951 7.8864808692 7.5749227956 7.0486746251 
7.5504568799 7.7842002708 8.5752231867 8.8550180059 8.3311191065 8.8426142075 7.5800057415 7.6657037718 7.8203131806 
8.2745278414 9.035864752 8.4594668686 9.0121668784 8.3738612561 7.8791052681 8.1006850356 7.854266412 7.711966679 
8.0078771593 8.2379508008 7.8474480684 7.8082436969 7.8714835555 8.1620478363 7.9990644137 8.4647401567 8.0010646722 
8.4171673692 7.6350789755 7.4624311264 7.9354670915 7.8026725812 8.3630617795 8.3410441931 8.203207306 8.5493387509 
8.8675609278 7.9300093605 7.7756513136 7.9744173055 7.9210308852 8.2049700475 8.2247378679 7.6554780947 8.1111728347 
7.4589666757 8.0997658128 8.1713060616 7.9274582943 7.7148327466 7.8489851943 8.258892939 8.5266362958 8.0732963655 
7.9624462548 8.547775908 8.8823987122 8.573724284 8.6811435685 6.8257565346 8.7477845013 8.3039502569 6.3554412147 
8.074351109 6.4366557595 7.8328143132 8.1521783641 8.037835241 6.8765057419 8.2407023549 8.1590983099 6.9226476896 
6.6585718491 7.4331749935 8.3419244043 8.1284019912 8.3451477855 8.0506099072 8.2652844481 7.8451194588 7.9697236565 
8.0159807046 8.0864101154 8.0644828665 7.4239822171 8.3251395144 7.9227234497 7.7040381788 7.5866005866 7.7730061536 
7.6290930392 7.6231862579 7.1632979553 7.2567137512 7.6194359038 8.3383202062 7.3463550397 7.3020823992 7.6275231339 
3.005313587 3.0112801379 3.0048388635 2.9975661578 3.464037029 3.13521874 3.0318138894 2.7390769805 2.7256074829 
3.0081372178 2.713340446 3.3926601843 3.5846135034 3.0172129878 2.5284904984 4.675923191 5.7370428399 4.0225915094 
4.3512171608 4.62569156 5.7438432042 3.5258763956 4.98256247 2.8872300155 2.6707923355 6.0147514474 5.3268094347 
3.0099465699 3.4593694397 3.7749491764 3.4573615573 3.2056598216 5.806460595 6.5804512408 5.9480961376 4.5416894493 
3.9675633374 6.7115564674 6.9328857551 6.2115971573 8.2377579958 7.0113034321 6.8431490952 4.2242760318 5.2209103246 
6.1180734873 7.5864193214 7.1270285521 5.6494372045 7.7555196892 8.7758659881 8.6398137516 8.6719333561 8.0563133956 
7.8978874984 7.9560238752 9.3538800954 9.1844651504 9.6392724518 10.53831624 11.053513583 9.8463579899 9.5563724281 
9.4786718242 8.9369922244 10.362317182 12.11689953 11.026613065 8.5170261598 8.2335755529 8.107208892 8.0876725021 
7.8479851593 8.9140416582 11.010022584 11.090348071 9.5695603417 8.0595435607 8.1773822095 8.3822312816 8.6906249802 
8.8224264072 7.929603897 8.2872058108 8.8700563116 9.1096504969 8.7934247379 8.9272715592 8.6438038628 8.5142541512 
8.7684960401 8.8149336654 8.5512366235 9.0195348185 8.6582188011 8.5416122899 9.2164288853 8.9961382102 8.6332663376 
8.3969513117 8.2784085819 7.4463630361 8.3299649812 8.2497644289 7.3628631183 8.1478355252 8.0903682099 8.3388959553 
8.3014558 7.5770671685 8.739610117 8.8506463278 9.2813806646 9.3147414757 9.3828523032 7.9463694781 9.2256245038 
8.0769799929 7.1868863299 8.4731450847 6.430133879 6.0852312635 7.8771246182 6.3763684213 8.7079852825 8.2064602723 
6.2870457716 6.6962338619 7.1175350357 7.7362271384 8.9213971221 7.7291526898 8.2721475594 9.2094688819 8.5970407577 
8.8112970741 8.5220998801 8.5166919121 8.3754724463 7.6760982407 8.8117364191 8.7028761876 8.7006279253 7.8079511703 
7.3749993681 7.5355712071 7.7362611727 7.384538901 7.533171537 8.1006153508 7.6385828083 7.8631266529 7.6400076503 
7.7588131145 3.8063556888 3.4110197852 3.5044164721 3.4201350032 3.484786191 3.4804453964 3.5162164236 3.0103780391 
3.1801774968 3.4894034867 3.4179864156 3.1481662255 3.2026903221 3.1342312776 3.0297785334 3.3956625517 3.0344313831 
3.5672161604 3.5245398163 3.7109824258 3.6554031127 3.4610823483 3.8727816005 3.632020426 3.1886169347 3.3723576484 
3.7263728474 3.9685401227 3.2166578472 3.0613459681 4.5276681034 4.3896855217 5.2459601962 3.2163878797 2.9129592645 
5.9517135422 3.8740740521 3.6842902282 5.4038558 6.1656173265 6.7288522336 3.8849588201 7.0056236298 7.1308090439 
7.0889493173 5.0805682375 4.7104218894 4.972826041 7.1822097532 4.6126383462 3.9029859738 7.7634560295 8.3877246789 
4.7736986611 7.135633811 9.1527862569 5.5288574204 5.1837217994 9.7081422805 9.1635334151 6.5685071245 9.2767010601 
8.8305566394 10.738794972 10.019054003 9.8095930436 8.5439154325 9.3469761641 8.3103300954 8.430399123 10.307710808 
8.3227421057 8.2652580208 8.3196793359 8.2348912166 8.7169153217 8.2102098799 8.5055685138 8.4641122036 8.6406878615 
8.4818058782 8.8339746617 9.1871782437 9.3640738117 8.7810502746 9.1885538612 9.0716127038 8.9911982157 8.7163365941 
8.4014371951 8.3078594556 8.4044579424 8.4597432343 8.2939137461 7.9367396191 7.4801776886 8.7364385496 8.4396903841 
9.1441977456 7.581524875 9.6244147734 7.9233874497 9.6127094752 9.1219390439 9.1886987038 8.4936975799 8.7702902346 
8.131014144 8.0509776983 8.203412252 7.2080134191 8.0441116882 6.6141007152 8.5364135868 9.1122780772 7.2096245641 
9.4801624587 7.7194205471 9.6485845154 8.0796531177 8.3813965178 8.6181176518 9.6047978885 9.343410698 8.4888028031 
9.2420287072 9.5766644967 8.0022830398 7.6501911411 9.2094049054 9.2819436651 8.8863023472 8.6386911996 7.6761198238 
7.7980293851 8.0652763496 3.5190185922 3.6856806061 3.4935810803 3.4479727878 3.3382198475 3.521216861 4.8742878843 
3.7867597246 4.4458379237 3.5635277026 4.3520565637 3.6047986891 3.3227312673 3.392748 3.5159075889 3.4565075894 
4.0042909543 4.0847648805 3.3783414698 3.5736081616 3.7329681619 3.4853317671 4.3515793388 4.2029063518 3.7000069049 
3.6667052281 4.0826884023 4.0120989459 3.9878990877 3.9560630357 3.3394568373 4.611673388 3.971968816 5.2290746406 
3.7267214107 5.8521154199 6.9990274363 3.4756558914 2.6153327517 2.5723596509 3.2165517576 4.014571836 2.6539985557 
8.2063606475 7.4983129626 7.86717184 7.2101001708 2.9199207192 8.6305986808 9.3294774955 3.1856427484 3.4746847771 
9.7244775891 9.8074958185 5.1265860906 3.9857359769 3.7223567787 5.0237132392 9.6379037069 8.8855054711 5.922094094 
6.4656560539 8.673794185 8.596929546 7.5390948166 8.619942919 7.356180429 8.5872635084 8.077611321 8.4697289319 
8.5062133468 8.3353581424 7.8250592281 8.2020813107 8.0435387949 8.5388029527 8.5736486748 7.8459164344 8.8863597917 
9.1121516903 8.2197335361 9.3066528293 8.4287672605 8.5471812573 9.322478907 8.5874111134 8.7352387696 8.4969319062 
8.8170442998 8.1446768762 8.2061462539 8.8320822199 8.98737045 8.3129068286 8.328797477 8.6158424877 8.325364382 
8.2868726711 7.9075264325 7.9221779461 9.303193294 9.6135003165 8.7158363905 8.7313616407 8.6756395453 8.2710328423 
8.4275889296 7.2337838244 7.0988712647 7.059937996 6.8646566875 6.8878242779 6.961899866 9.3464774127 9.6244594723 
7.5391320231 9.6621839378 9.5511037573 7.9080126919 7.9561207148 8.276753374 8.0796415547 9.6330585114 9.5278610835 
7.6920813309 7.6509249813 7.69074264 8.75194814 8.1958750445 7.8501777992 7.9631672603 7.9817441385 7.7655078723 
7.9543273529 8.3308572913 8.1769247968 8.3302807374 8.1063902417 3.8056453373 4.8760881938 3.8762181045 3.7824506393 
3.2488898375 2.9731921303 2.9075177173 3.3403435986 3.149407774 3.1630088369 2.9887830994 3.1646025549 3.6056774311 
4.2386056716 2.5884242763 4.5586345583 4.6817307776 3.4477450426 4.5997064471 5.0344632535 4.625021788 4.7056611301 
3.983142782 4.9447608308 3.5164581825 5.215062832 3.7357318864 3.9402434917 5.1872064902 4.5990924608 4.5347090472 
5.1517882067 5.8905006496 4.6826796003 6.3504148949 3.7599592717 7.0121627455 7.5168340913 2.1579824193 1.7959374313 
8.6639778333 9.262062906 2.7771538251 2.7346408086 9.2977808794 3.632542744 5.2193680075 9.4467676704 9.8083312066 
9.0600201684 8.9355145353 9.1867051692 7.3691343862 6.7018671975 8.9191147752 7.7229094333 8.7493970436 8.5428436457 
7.7662871352 8.5439993302 7.7899050711 7.9940896942 8.2283323208 8.6216226045 8.5331904052 9.1284235913 9.3066349112 
8.4812608643 9.2986209329 8.9952048672 8.5750050185 8.5144043568 8.1309345823 8.0789103692 8.0066393139 8.8203538227 
8.8799767123 8.1763903529 8.4052450412 8.8126355328 8.6065797899 8.9937609357 7.8012101903 9.4220788875 7.7935519459 
7.9949902781 9.2667047375 8.7783969482 8.9095179502 8.5485813484 8.8245711405 8.4756396132 7.4210743042 8.4345233448 
8.6980379811 6.7287568629 6.9584406294 7.0776802134 8.9369618885 9.4481532576 9.7307345923 7.5439085058 7.4609730504 
9.6407334925 7.955069141 9.3426768366 8.2205155872 9.2981500648 8.0701925451 7.9460289057 7.810981305 9.8193484867 
9.5809969543 7.6283040614 9.4616419117 7.6774478042 9.4692842502 9.2568599975 7.8593819171 7.6704525529 9.3280923953 
8.9666503976 8.0290129853 8.0236245789 8.2598600513 8.4199584465 8.4074740802 7.906477928 8.2117152702 8.2683039656 
2.6351579532 2.563986169 2.2055851904 2.1472481116 2.00983689 2.7080612881 2.3533302396 3.5629529108 3.4763849694 
3.0110015199 3.2301466926 2.4484630967 2.4403197658 4.6340016732 3.6273797135 2.594283265 4.7898215514 4.2103638125 
3.8409622411 3.618509018 5.1553312919 3.6975058377 3.6852653858 5.2140464606 4.166590713 4.6567196152 4.9989084493 
5.0422405333 4.7623755177 3.777111057 4.4511732244 5.6205143176 6.6443357288 3.0098300671 2.8028344371 7.1317236673 
2.4842890783 2.4527647039 7.7680592576 8.1420501261 2.6438380367 9.5260752844 9.7421478019 2.5647649304 3.2748335355 
9.8752357551 10.088568252 4.5232545483 9.4462557893 9.152735202 6.5542513913 8.9254628965 8.6687620382 8.7794507826 
8.2615331964 8.764419364 8.7040529474 7.8023776192 8.8201779905 8.7456979531 8.664985493 8.2295087591 8.4228009343 
9.2552598535 8.819046685 8.3906846025 9.221787468 9.4242079617 8.2296689227 8.8870363458 9.0274771302 8.0192231782 
8.3217251307 8.2795525836 8.5215604784 7.9616181678 8.0154287062 8.7656748089 8.4167275181 8.7013046855 9.2089166454 
9.3768094585 8.0748398275 8.3604892826 9.0677083184 8.6022107068 8.792196903 7.6954688279 8.049609085 8.3815519157 
7.8497243066 8.4166932941 7.4737176032 8.5014723127 8.9578626585 6.6563043369 6.5692933351 6.5894772368 7.2177644559 
7.0560653744 10.091412347 9.9171090355 7.9057874663 9.3628069099 8.4077255847 7.7701276399 9.0849686719 9.1067221931 
9.7379585955 8.1734107668 7.8362025869 7.9119928161 9.491479074 7.7139976577 7.6643319469 9.6295637563 9.4031839634 
7.5712267215 8.6948857953 7.920569435 7.7777669001 8.1934850719 8.6252431288 8.4041762925 8.6076315538 8.6604496523 
8.5275483076 2.0307316117 2.0500102462 2.1819351262 3.4432833131 2.6542516354 3.6106858723 1.8713754195 3.3506866758 
3.1978369884 2.4757096792 4.3092251229 2.7332281201 3.8762480962 3.2873248409 4.0765893521 4.4121896875 4.1172120602 
4.4191687097 3.9125912391 4.1017804343 4.3271686368 5.1715356632 4.745912313 6.0741045979 3.5001794993 4.0800300766 
3.2548448694 7.2866858397 2.9512970628 2.8741205465 8.4438889141 10.12850466 9.5459460115 9.029619848 2.9554520322 
3.2232889612 3.3461001376 10.183836023 3.8745457359 10.423417257 10.020494184 4.2780908689 9.4553995214 5.5918448784 
5.7777754821 8.7704235723 7.9981909124 9.2662500163 8.8613360329 9.1114715821 8.7736600282 9.2535037275 9.1346762168 
8.8724776301 9.2715362164 9.5866491203 8.8001893249 8.8332002822 8.214638164 8.1406445152 8.1570301644 8.0150664523 
8.4195800894 7.9028065179 7.7232270529 7.9277765101 8.5829546225 8.4198030056 7.8588566504 8.5671111029 9.1017161857 
8.9406113073 9.5556160294 9.3193018509 7.9255799205 7.7124529281 7.4484954328 8.4685452243 8.6696429255 7.3367367216 
7.0046072261 9.2306526014 6.767971987 9.7490308295 6.9529970914 7.4668571559 9.947603599 7.7501128509 8.4035356678 
9.0536046624 9.0173042241 9.0097146727 9.2851628598 7.6986607271 9.9063540434 10.061641412 7.3725074562 7.1947243589 
9.5797678165 7.2358244354 9.4909350348 7.7062553597 9.4830264495 9.1027430925 7.4573316083 8.0359964911 7.9680641025 
8.8496412546 8.8237385302 8.6211454277 8.3541855313 8.9847517049 9.0610871466 2.4283968476 2.4847907303 2.7327033031 
2.8835825308 3.1951780982 2.1594875243 2.3306899573 3.7405992862 2.4307645161 2.4538253536 3.5741535227 3.6587465919 
3.5659866774 3.9173964104 2.8763008092 2.9788199742 4.1593974138 3.8526640629 3.1284563379 3.7794381908 4.1248492205 
3.3671061275 3.6928983841 4.0073862729 4.0886602498 3.8029075033 4.3996186568 5.6699288005 3.6265268 3.252498159 
6.496683512 6.9519009455 7.6060006585 8.1778130356 2.9562940956 8.7762191834 2.4815346588 2.6605361127 3.4172922907 
9.8304329771 9.2436416617 9.1120689255 7.8154925692 8.8293967198 8.4646175219 8.9810412642 9.0520443154 8.9430444108 
8.5556684906 9.2983124841 8.2619056633 9.5682060493 9.5276829467 8.6529870291 9.7454709381 8.8837481359 9.3276948416 
8.4624225874 7.939136124 8.339474482 7.7471670441 7.5342804143 8.4305452676 8.8263719575 9.004820266 9.6213042538 
9.8057552397 8.8867324874 9.3272593439 8.8539527833 8.4309224895 7.5494340109 7.7694710634 8.6114770635 8.5941481883 
8.938129317 7.1285348091 9.9831675407 6.8613944616 6.7655372511 6.971018027 10.05906927 7.2858532349 7.6608718907 
10.262810413 8.0319031794 9.2003338948 8.1208008108 8.3810124515 9.2822673059 9.2058442996 9.5534103423 7.5188518996 
8.3687026711 6.9552574117 10.120716647 6.7209014931 9.8332994213 6.8535871387 9.5461230277 9.256970571 9.4682806152 
8.9607146623 9.1695289455 8.265364107 8.8354179937 8.9073207473 8.861655389 8.9138353916 3.2312748843 2.9023056316 
2.6686807447 3.6877238714 3.5269618865 2.5154998966 3.6141829636 2.6690171027 2.9747902547 4.1416916346 4.2574160296 
3.3150379361 4.3225052046 4.7665473527 5.0251294159 5.1694201235 3.6696874398 3.4732524988 3.539624089 5.8588209998 
7.9265917526 7.2611216576 8.77689115 3.4192655136 3.1814523447 9.3533215159 3.0445806377 10.047112066 2.694428237 
2.432724854 2.5544529981 3.095706646 10.459950652 10.486183425 10.580941063 4.0591233566 10.281663968 4.757284392 
9.405576462 5.6454585706 7.2186458024 8.8956096405 8.9270226892 8.9501329765 7.7497118424 7.0747028307 9.1390220917 
6.7369282768 9.2640969935 7.4442850494 9.5389963919 7.3640137275 9.5085738068 7.3052837394 9.535643181 9.0533396246 
8.2781259534 8.0382567927 8.4236321624 7.83141919 8.5351979276 8.2167645069 7.4479329305 7.6338584388 8.8001364458 
8.7462186746 9.2179232013 9.890958865 9.0387695047 8.7282489235 9.1828826755 8.2892260594 8.8563727605 6.7560137807 
6.7504644775 8.8916714667 6.6904770894 6.6803940892 7.0525628718 9.2808210087 10.021297617 7.7187594676 9.9590797797 
8.7943551278 9.9137814457 9.4849722971 8.4087356429 7.7156982215 8.7394657383 8.9500756594 7.5674687499 7.853178313 
7.3708779986 6.7566291612 9.8977180068 10.271374774 6.3224217505 10.277466267 7.030681705 6.7178316222 6.760839676 
9.6704895647 7.9591726606 7.6923316067 9.477912153 8.6334185728 9.1311526002 9.2123225845 9.0527653978 8.981824962 
9.1257137751 8.9741737803 8.6606057755 9.1131100652 8.7592070086 1.7977699968 1.9492232644 2.4212617634 2.7690163264 
2.6430393587 1.8311485589 1.9915000031 3.9876942371 3.4939958376 3.5869212046 3.7756689954 2.2728005639 1.8880244612 
2.2180419596 3.4844348571 3.6010190165 3.3352486607 3.5602714021 2.3418725114 3.5388015733 3.7031169048 2.6137489678 
5.4304460411 3.0776285545 3.0483153495 2.6207293588 6.2304410974 6.7613342583 3.0524577071 2.9727662073 2.7395397892 
10.368167566 10.567778969 3.0213081479 3.6958934566 4.403132033 4.7803256105 9.3719217916 9.1297266909 5.7720189613 
9.126060056 6.5994556211 7.3092468916 9.1116662179 6.4711285754 6.6627939585 6.575937983 9.7387610773 7.2871377205 
9.8013621297 7.2110306917 7.9357598819 8.0385806394 7.5121042991 7.5101793288 8.0969720185 8.5311204668 9.7217772784 
9.9234658396 8.909825808 8.6153060218 8.0820967589 7.8374065878 7.4099618364 8.9363922315 10.291869011 10.323219353 
9.634360076 9.5837183006 6.6750651116 10.164633928 9.8434210511 9.398460692 8.8908089259 8.439347862 7.5879536455 
9.1156342315 8.2168852003 7.3128859014 8.9321765685 7.252515152 8.6677257019 6.7576263711 9.2005002522 9.5311048371 
7.0804225579 6.9188051262 6.704376857 6.93326852 6.726663743 10.100744948 7.0769638938 7.4202315978 9.510194706 
9.1065335092 8.2752902736 8.5446756208 8.0811358165 8.9018614782 8.8550239076 8.9192546059 8.6413431506 8.8506805842 
9.040048695 8.9159776911 8.4310265101 8.6845475523 8.7056642309 2.3097436806 1.7430195903 1.6644529837 3.4504016925 
1.8947710738 3.7430451803 3.1864309577 2.1138790909 1.7252654463 3.0602545385 3.2842971868 2.2387158011 4.4352840442 